# vtk DataFile Version 2.0
track0
ASCII
DATASET POLYDATA
POINTS 12950 double
-0.0205 0.001 1e-05
-0.0202034 0.00100015 1e-05
-0.0199069 0.00100058 1e-05
-0.0196103 0.00100127 1e-05
-0.0193137 0.00100221 1e-05
-0.0190172 0.00100342 1e-05
-0.0187132 0.00100487 1e-05
-0.0184093 0.00100642 1e-05
-0.0181054 0.00100804 1e-05
-0.0178015 0.00100975 1e-05
-0.0174976 0.00101153 1e-05
-0.0172058 0.00101332 1e-05
-0.016914 0.00101512 1e-05
-0.0166222 0.00101694 1e-05
-0.0163305 0.00101879 1e-05
-0.0160387 0.00102066 1e-05
-0.0158496 0.00102189 1e-05
-0.0156606 0.00102313 1e-05
-0.0154715 0.00102438 1e-05
-0.0152824 0.00102564 1e-05
-0.015106 0.00102682 1e-05
-0.0150124 0.00102745 1e-05
-0.0149188 0.00102808 1e-05
-0.0148253 0.00102872 1e-05
-0.0147317 0.00102936 1e-05
-0.0146381 0.00103 1e-05
-0.0143692 0.00103184 1e-05
-0.0141002 0.0010337 1e-05
-0.0138313 0.00103557 1e-05
-0.0135624 0.00103746 1e-05
-0.0132934 0.00103935 1e-05
-0.0130353 0.00104118 1e-05
-0.0127771 0.00104301 1e-05
-0.0125189 0.00104485 1e-05
-0.0122607 0.00104668 1e-05
-0.0120025 0.00104851 1e-05
-0.0117547 0.00105027 1e-05
-0.0115068 0.00105203 1e-05
-0.0112589 0.00105378 1e-05
-0.0110111 0.00105552 1e-05
-0.0107632 0.00105726 1e-05
-0.0105252 0.00105892 1e-05
-0.0102873 0.00106058 1e-05
-0.0100493 0.00106222 1e-05
-0.00981133 0.00106386 1e-05
-0.00957337 0.00106549 1e-05
-0.00934491 0.00106704 1e-05
-0.00911645 0.00106859 1e-05
-0.00888799 0.00107012 1e-05
-0.00865954 0.00107164 1e-05
-0.00843108 0.00107315 1e-05
-0.00821175 0.00107459 1e-05
-0.00799242 0.00107603 1e-05
-0.00777309 0.00107744 1e-05
-0.00755376 0.00107885 1e-05
-0.00733443 0.00108025 1e-05
-0.00712387 0.00108158 1e-05
-0.0069133 0.0010829 1e-05
-0.00670273 0.0010842 1e-05
-0.00649216 0.00108549 1e-05
-0.0062816 0.00108677 1e-05
-0.00607944 0.00108799 1e-05
-0.00587729 0.0010892 1e-05
-0.00567514 0.00109039 1e-05
-0.00547298 0.00109156 1e-05
-0.00527083 0.00109273 1e-05
-0.00507675 0.00109383 1e-05
-0.00488267 0.00109492 1e-05
-0.0046886 0.001096 1e-05
-0.00449452 0.00109706 1e-05
-0.00430044 0.00109811 1e-05
-0.00411412 0.00109909 1e-05
-0.0039278 0.00110007 1e-05
-0.00374147 0.00110102 1e-05
-0.00355515 0.00110196 1e-05
-0.00336883 0.00110288 1e-05
-0.00318995 0.00110375 1e-05
-0.00301107 0.0011046 1e-05
-0.00283219 0.00110543 1e-05
-0.00265331 0.00110623 1e-05
-0.00247443 0.00110702 1e-05
-0.0023027 0.00110775 1e-05
-0.00213097 0.00110846 1e-05
-0.00195924 0.00110914 1e-05
-0.0017875 0.00110979 1e-05
-0.00161577 0.00111041 1e-05
-0.0014509 0.00111098 1e-05
-0.00128603 0.00111152 1e-05
-0.00112116 0.00111203 1e-05
-0.000956289 0.00111249 1e-05
-0.000791418 0.00111291 1e-05
-0.000633135 0.00111327 1e-05
-0.000474851 0.0011136 1e-05
-0.000316567 0.00111388 1e-05
-0.000158283 0.00111412 1e-05
0 0.00111432 1e-05
0.000105677 0.00111442 1e-05
0.000211355 0.00111452 1e-05
0.000317032 0.00111459 1e-05
0.00042271 0.00111464 1e-05
0.000528387 0.00111468 1e-05
0.000634886 0.0011147 1e-05
0.000741385 0.00111471 1e-05
0.000847885 0.00111471 1e-05
0.000954384 0.0011147 1e-05
0.00106088 0.00111469 1e-05
0.00116821 0.00111466 1e-05
0.00127554 0.00111462 1e-05
0.00138286 0.00111458 1e-05
0.00149019 0.00111454 1e-05
0.00159752 0.00111449 1e-05
0.00170568 0.00111443 1e-05
0.00181384 0.00111437 1e-05
0.001922 0.0011143 1e-05
0.00203016 0.00111423 1e-05
0.00213833 0.00111416 1e-05
0.00224733 0.00111408 1e-05
0.00235633 0.001114 1e-05
0.00246533 0.00111392 1e-05
0.00257434 0.00111383 1e-05
0.00268334 0.00111374 1e-05
0.00279319 0.00111365 1e-05
0.00290304 0.00111356 1e-05
0.00301289 0.00111347 1e-05
0.00312274 0.00111338 1e-05
0.00323259 0.00111329 1e-05
0.00334329 0.0011132 1e-05
0.003454 0.00111311 1e-05
0.0035647 0.00111302 1e-05
0.0036754 0.00111294 1e-05
0.00378611 0.00111286 1e-05
0.00389767 0.00111278 1e-05
0.00400924 0.0011127 1e-05
0.0041208 0.00111263 1e-05
0.00423237 0.00111257 1e-05
0.00434393 0.0011125 1e-05
0.00445636 0.00111244 1e-05
0.00456879 0.00111238 1e-05
0.00468123 0.00111233 1e-05
0.00479366 0.00111228 1e-05
0.00490609 0.00111224 1e-05
0.0050194 0.0011122 1e-05
0.0051327 0.00111217 1e-05
0.00524601 0.00111214 1e-05
0.00535931 0.00111212 1e-05
0.00547262 0.00111211 1e-05
0.00558681 0.0011121 1e-05
0.005701 0.00111209 1e-05
0.00581518 0.0011121 1e-05
0.00592937 0.00111211 1e-05
0.00604356 0.00111212 1e-05
0.00615863 0.00111215 1e-05
0.00627371 0.00111218 1e-05
0.00638878 0.00111221 1e-05
0.00650386 0.00111226 1e-05
0.00661893 0.00111231 1e-05
0.0067349 0.00111237 1e-05
0.00685087 0.00111243 1e-05
0.00696684 0.0011125 1e-05
0.00708281 0.00111259 1e-05
0.00719878 0.00111267 1e-05
0.00726257 0.00111273 1e-05
0.00732637 0.00111278 1e-05
0.00739016 0.00111284 1e-05
0.00745395 0.0011129 1e-05
0.00751993 0.00111296 1e-05
0.00757257 0.00111302 1e-05
0.00762521 0.00111307 1e-05
0.00767785 0.00111313 1e-05
0.00773049 0.00111318 1e-05
0.00778313 0.00111324 1e-05
0.00790091 0.00111338 1e-05
0.00801869 0.00111352 1e-05
0.00813647 0.00111367 1e-05
0.00825425 0.00111383 1e-05
0.00837203 0.001114 1e-05
0.00849073 0.00111417 1e-05
0.00860942 0.00111435 1e-05
0.00872812 0.00111454 1e-05
0.00884682 0.00111474 1e-05
0.00896551 0.00111495 1e-05
0.00908513 0.00111515 1e-05
0.00920475 0.00111538 1e-05
0.00932437 0.00111561 1e-05
0.00944398 0.00111585 1e-05
0.0095636 0.0011161 1e-05
0.00968415 0.00111633 1e-05
0.0098047 0.0011166 1e-05
0.00992525 0.00111687 1e-05
0.0100458 0.00111715 1e-05
0.0101663 0.00111743 1e-05
0.0102878 0.0011177 1e-05
0.0104093 0.001118 1e-05
0.0105308 0.00111831 1e-05
0.0106523 0.00111863 1e-05
0.0107738 0.00111895 1e-05
0.0108962 0.00111925 1e-05
0.0110186 0.00111958 1e-05
0.0111411 0.00111992 1e-05
0.0112635 0.00112027 1e-05
0.0113859 0.00112062 1e-05
0.0115093 0.00112095 1e-05
0.0116327 0.00112131 1e-05
0.0117561 0.00112168 1e-05
0.0118794 0.00112205 1e-05
0.0120028 0.00112243 1e-05
0.0121272 0.00112278 1e-05
0.0122515 0.00112316 1e-05
0.0123759 0.00112355 1e-05
0.0125002 0.00112394 1e-05
0.0126245 0.00112433 1e-05
0.0127498 0.00112469 1e-05
0.0128752 0.00112509 1e-05
0.0130005 0.00112548 1e-05
0.0131258 0.00112587 1e-05
0.0132511 0.00112626 1e-05
0.0133774 0.00112663 1e-05
0.0135036 0.00112702 1e-05
0.0136299 0.0011274 1e-05
0.0137562 0.00112778 1e-05
0.0138825 0.00112815 1e-05
0.0140098 0.0011285 1e-05
0.014137 0.00112887 1e-05
0.0142643 0.00112922 1e-05
0.0143915 0.00112956 1e-05
0.0145188 0.00112989 1e-05
0.0146471 0.0011302 1e-05
0.0147753 0.00113051 1e-05
0.0149036 0.0011308 1e-05
0.0150318 0.00113107 1e-05
0.0151601 0.00113132 1e-05
0.0152893 0.00113155 1e-05
0.0154186 0.00113176 1e-05
0.0155478 0.00113195 1e-05
0.0156771 0.00113211 1e-05
0.0158063 0.00113224 1e-05
0.0159366 0.00113233 1e-05
0.0160668 0.0011324 1e-05
0.0161971 0.00113243 1e-05
0.0163274 0.00113241 1e-05
0.0164576 0.00113236 1e-05
0.0165889 0.00113226 1e-05
0.0167201 0.00113212 1e-05
0.0168514 0.00113192 1e-05
0.0169827 0.00113166 1e-05
0.0171139 0.00113134 1e-05
0.0172462 0.00113097 1e-05
0.0173785 0.00113053 1e-05
0.0175108 0.00113001 1e-05
0.0176431 0.00112942 1e-05
0.0177754 0.00112875 1e-05
0.0179087 0.001128 1e-05
0.018042 0.00112717 1e-05
0.0181753 0.00112623 1e-05
0.0183087 0.0011252 1e-05
0.018442 0.00112407 1e-05
0.0185763 0.00112284 1e-05
0.0187107 0.0011215 1e-05
0.018845 0.00112003 1e-05
0.0189794 0.00111843 1e-05
0.0191137 0.00111672 1e-05
0.0192491 0.00111488 1e-05
0.0193845 0.00111288 1e-05
0.0195199 0.00111073 1e-05
0.0196553 0.00110842 1e-05
0.0197907 0.00110597 1e-05
0.0199272 0.00110337 1e-05
0.0200636 0.00110057 1e-05
0.0202001 0.00109758 1e-05
0.0203365 0.00109441 1e-05
0.020473 0.00109106 1e-05
0.0206105 0.00108753 1e-05
0.020748 0.00108377 1e-05
0.0208855 0.00107977 1e-05
0.021023 0.00107555 1e-05
0.0211606 0.00107114 1e-05
0.0212991 0.0010665 1e-05
0.0214377 0.00106159 1e-05
0.0215763 0.00105639 1e-05
0.0217148 0.00105095 1e-05
0.0218535 0.00104528 1e-05
0.0219931 0.00103934 1e-05
0.0221328 0.00103308 1e-05
0.0222724 0.00102651 1e-05
0.022412 0.00101965 1e-05
0.0225517 0.00101252 1e-05
0.0226925 0.00100506 1e-05
0.0228332 0.000997248 1e-05
0.0229739 0.000989084 1e-05
0.0231146 0.000980592 1e-05
0.0232555 0.000971774 1e-05
0.0233973 0.000962583 1e-05
0.0235391 0.000952994 1e-05
0.0236809 0.000943028 1e-05
0.0238227 0.000932692 1e-05
0.0239647 0.000921966 1e-05
0.0241076 0.000910818 1e-05
0.0242505 0.000899246 1e-05
0.0243934 0.000887269 1e-05
0.0245362 0.000874885 1e-05
0.0246794 0.000862063 1e-05
0.0246996 0.000860191 1e-05
0.0247199 0.00085831 1e-05
0.0247401 0.00085642 1e-05
0.0247604 0.000854521 1e-05
0.0247798 0.000852695 1e-05
0.0249038 0.000840971 1e-05
0.0250277 0.000828924 1e-05
0.0251516 0.000816553 1e-05
0.0252755 0.000803859 1e-05
0.0253996 0.000790806 1e-05
0.0255448 0.000775182 1e-05
0.0256899 0.000759042 1e-05
0.025835 0.000742435 1e-05
0.02598 0.000725359 1e-05
0.0261255 0.000707765 1e-05
0.0262718 0.000689626 1e-05
0.026418 0.000670941 1e-05
0.0265642 0.00065171 1e-05
0.0267103 0.000631984 1e-05
0.026857 0.000611702 1e-05
0.0270044 0.000590838 1e-05
0.0271518 0.000569414 1e-05
0.0272991 0.000547438 1e-05
0.0274463 0.000524931 1e-05
0.0275942 0.000501768 1e-05
0.027685 0.000487241 1e-05
0.0277757 0.000472502 1e-05
0.0278664 0.000457561 1e-05
0.027957 0.000442416 1e-05
0.0280358 0.000429085 1e-05
0.028096 0.000418755 1e-05
0.0281563 0.000408333 1e-05
0.0282165 0.000397816 1e-05
0.0282767 0.000387206 1e-05
0.0283371 0.000376473 1e-05
0.0284869 0.000349622 1e-05
0.0286365 0.000322156 1e-05
0.028786 0.000294118 1e-05
0.0289354 0.0002655 1e-05
0.0290858 0.000236109 1e-05
0.0292367 0.000206028 1e-05
0.0293875 0.000175324 1e-05
0.0295381 0.000143989 1e-05
0.0296887 0.000112053 1e-05
0.0298403 7.92517e-05 1e-05
0.0299123 6.34014e-05 1e-05
0.0299842 4.74117e-05 1e-05
0.0300561 3.12865e-05 1e-05
0.0301279 1.50275e-05 1e-05
0.0301938 0 1e-05
0.0302752 -1.87256e-05 1e-05
0.0303565 -3.76342e-05 1e-05
0.0304378 -5.67273e-05 1e-05
0.0305191 -7.60068e-05 1e-05
0.0306007 -9.55738e-05 1e-05
0.030754 -0.000132668 1e-05
0.0309071 -0.000170428 1e-05
0.03106 -0.000208859 1e-05
[...]
POINT_DATA 12950
 FIELD attributes 2
p 1 12950 float
-6.10767 -6.14198 -6.17815 -6.21456 -6.2512 -6.30352 -6.37662 -6.44306 -6.5095 -6.57594 -6.64166 -6.68662 -6.72881 -6.771 -6.81319 -6.85427 -6.87145 -6.8888 -6.90616 -6.92351 -6.93971 -6.94832 -6.95693 -6.96555 -6.97416 -6.98269 -7.00807 -7.03353 -7.059 -7.08446 -7.11007 -7.13616 -7.16231 -7.18846 -7.21461 -7.24051 -7.26438 -7.28807 -7.31177 -7.33546 -7.35861 -7.37973 -7.40078 -7.42182 -7.44287 -7.46359 -7.48304 -7.5026 -7.52217 -7.54173 -7.56122 -7.57978 -7.59857 -7.61737 -7.63617 -7.655 -7.67301 -7.69137 -7.70973 -7.72809 -7.74657 -7.76427 -7.78248 -7.80068 -7.81889 -7.83726 -7.85492 -7.87325 -7.89158 -7.9099 -7.92838 -7.94621 -7.96491 -7.98362 -8.00232 -8.02105 -8.03916 -8.05845 -8.07774 -8.09702 -8.11599 -8.1343 -8.15366 -8.17305 -8.19237 -8.21049 -8.22754 -8.24502 -8.26254 -8.27984 -8.29484 -8.30768 -8.31701 -8.32594 -8.33432 -8.33833 -8.34028 -8.33793 -8.33511 -8.33217 -8.32709 -8.32206 -8.31378 -8.30544 -8.29709 -8.28869 -8.28118 -8.27414 -8.26711 -8.26007 -8.25509 -8.25011 -8.24598 -8.24185 -8.23772 -8.23537 -8.23262 -8.22936 -8.2261 -8.22285 -8.22042 -8.21883 -8.21618 -8.21354 -8.21089 -8.20833 -8.20812 -8.20693 -8.20574 -8.20456 -8.20289 -8.20383 -8.20399 -8.20415 -8.20431 -8.20377 -8.20505 -8.20579 -8.20653 -8.20727 -8.20752 -8.20874 -8.2098 -8.21086 -8.21192 -8.21289 -8.2145 -8.21625 -8.218 -8.21976 -8.22168 -8.22429 -8.22716 -8.23003 -8.2329 -8.23598 -8.23996 -8.24414 -8.24831 -8.25249 -8.25677 -8.25978 -8.26287 -8.26596 -8.26905 -8.27224 -8.27478 -8.27732 -8.27986 -8.2824 -8.28482 -8.29241 -8.29993 -8.30745 -8.31498 -8.3223 -8.33235 -8.34236 -8.35237 -8.36238 -8.37243 -8.38524 -8.39835 -8.41146 -8.42457 -8.43827 -8.45403 -8.47064 -8.48726 -8.50387 -8.52186 -8.54066 -8.56106 -8.58145 -8.60185 -8.62461 -8.64666 -8.67116 -8.69566 -8.72016 -8.7481 -8.77375 -8.80266 -8.83156 -8.86047 -8.89389 -8.92361 -8.95724 -8.99086 -9.0245 -9.06368 -9.09801 -9.13676 -9.17551 -9.21426 -9.25948 -9.29901 -9.34317 -9.38733 -9.43148 -9.48277 -9.52793 -9.57767 -9.62742 -9.67716 -9.73458 -9.78577 -9.84116 -9.89654 -9.95193 -10.0153 -10.0728 -10.1336 -10.1944 -10.2553 -10.324 -10.3878 -10.4538 -10.5197 -10.5857 -10.6593 -10.7296 -10.8001 -10.8706 -10.9415 -11.0186 -11.0949 -11.1691 -11.243 -11.3177 -11.3964 -11.4773 -11.5542 -11.6301 -11.7068 -11.7856 -11.8693 -11.9481 -12.0244 -12.1011 -12.1785 -12.2629 -12.3428 -12.4177 -12.4921 -12.5663 -12.649 -12.729 -12.8003 -12.8694 -12.9382 -13.0164 -13.0949 -13.1602 -13.221 -13.2819 -13.3527 -13.4237 -13.4835 -13.5339 -13.5846 -13.6448 -13.7052 -13.7574 -13.7951 -13.8332 -13.88 -13.9252 -13.963 -13.9912 -14.0138 -14.0438 -14.0663 -14.0858 -14.1058 -14.1114 -14.1184 -14.1165 -14.1152 -14.1143 -14.1121 -14.1099 -14.1063 -14.1027 -14.0991 -14.0957 -14.0787 -14.0622 -14.0464 -14.031 -14.0021 -13.9756 -13.9322 -13.8897 -13.8377 -13.7736 -13.7203 -13.6679 -13.5966 -13.5067 -13.4173 -13.3352 -13.2471 -13.1441 -13.0403 -12.9257 -12.8582 -12.7786 -12.6984 -12.6185 -12.5494 -12.501 -12.4528 -12.4047 -12.3552 -12.2974 -12.1576 -12.0108 -11.8651 -11.705 -11.5378 -11.3718 -11.2069 -11.024 -10.8394 -10.6515 -10.5619 -10.4677 -10.3707 -10.274 -10.1855 -10.0804 -9.97562 -9.87121 -9.76367 -9.65106 -9.43479 -9.21973 -9.0034 -8.78009 -8.55552 -8.37177 -8.18718 -8.0014 -7.81638 -7.65539 -7.60232 -7.54932 -7.49639 -7.44289 -7.38877 -7.14259 -6.90201 -6.66268 -6.42532 -6.18601 -5.97456 -5.76613 -5.56265 -5.36024 -5.18516 -5.14327 -5.10142 -5.05961 -5.01873 -4.97823 -4.73177 -4.49384 -4.25736 -4.03788 -3.81608 -3.65201 -3.49257 -3.34751 -3.20349 -3.07748 -3.00824 -2.93919 -2.87034 -2.80824 -2.74764 -2.53966 -2.33401 -2.15299 -1.99648 -1.83698 -1.77642 -1.71681 -1.67191 -1.62742 -1.58666 -1.48609 -1.38676 -1.28875 -1.21743 -1.14681 -1.04692 -0.94981 -0.892196 -0.838979 -0.798669 -0.779319 -0.76016 -0.742036 -0.731612 -0.721171 -0.662323 -0.608467 -0.583775 -0.582068 -0.588625 -0.58874 -0.588865 -0.589947 -0.591648 -0.59334 -0.598806 -0.609203 -0.634511 -0.687029 -0.755006 -0.762076 -0.769233 -0.777748 -0.788117 -0.798257 -0.857122 -0.921702 -1.00373 -1.10262 -1.23231 -1.23333 -1.23434 -1.23553 -1.23677 -1.23802 -1.34304 -1.45478 -1.57761 -1.72174 -1.84169 -1.89916 -1.95827 -2.02465 -2.09219 -2.18137 -2.25538 -2.33074 -2.40745 -2.49009 -2.56988 -2.72563 -2.88585 -3.04767 -3.2138 -3.3664 -3.5219 -3.67163 -3.81429 -3.95797 -4.07806 -4.18353 -4.27655 -4.37071 -4.46604 -4.54786 -4.60282 -4.6551 -4.70776 -4.76083 -4.80641 -4.83285 -4.86063 -4.88848 -4.9164 -4.94148 -4.95541 -4.97387 -4.99229 -5.01067 -5.03048 -5.04138 -5.05738 -5.07329 -5.08911 -5.10614 -5.11595 -5.12739 -5.13865 -5.14972 -5.15928 -5.16247 -5.16535 -5.16804 -5.16994 -5.17163 -5.17334 -5.17506 -5.17666 -5.1776 -5.1782 -5.17692 -5.17608 -5.17255 -5.16819 -5.16665 -5.16523 -5.1627 -5.15965 -5.15786 -5.15752 -5.15791 -5.15446 -5.15013 -5.14372 -5.14388 -5.1437 -5.14325 -5.14281 -5.14233 -5.13839 -5.1348 -5.13155 -5.12624 -5.11842 -5.11542 -5.11208 -5.10552 -5.09215 -5.0801 -5.07304 -5.06636 -5.05508 -5.03903 -5.02364 -5.01105 -4.99882 -4.9843 -4.96715 -4.95023 -4.93247 -4.91511 -4.89901 -4.88293 -4.86671 -4.84575 -4.82776 -4.81125 -4.79521 -4.78022 -4.77294 -4.76757 -4.76235 -4.75719 -4.75282 -4.74228 -4.73197 -4.72191 -4.7125 -4.7055 -4.68836 -4.6732 -4.66187 -4.65933 -4.65716 -4.64481 -4.63973 -4.64306 -4.64662 -4.64942 -4.64967 -4.64994 -4.65023 -4.65223 -4.65506 -4.6632 -4.67466 -4.68652 -4.71853 -4.75387 -4.76973 -4.786 -4.81918 -4.85449 -4.87864 -4.91351 -4.94921 -4.99465 -5.04646 -5.17338 -5.18734 -5.20125 -5.21512 -5.22895 -5.24821 -5.31658 -5.38432 -5.45033 -5.51483 -5.59475 -5.64165 -5.68997 -5.73755 -5.78446 -5.84835 -5.87451 -5.90045 -5.92634 -5.95218 -5.99042 -5.993 -5.99423 -5.99597 -5.9982 -6.00982 -5.98787 -5.96435 -5.94189 -5.92049 -5.90849 -5.86474 -5.81892 -5.7748 -5.73237 -5.70209 -5.64206 -5.57702 -5.51449 -5.45848 -5.41161 -5.33766 -5.26694 -5.19947 -5.15011 -5.10415 -5.03178 -4.96634 -4.92761 -4.89529 -4.86935 -4.83881 -4.82383 -4.81466 -4.80725 -4.80318 -4.79835 -4.79468 -4.79216 -4.79567 -4.80841 -4.80773 -4.81566 -4.83623 -4.88723 -4.94949 -4.97469 -5.01166 -5.06606 -5.12364 -5.17067 -5.1931 -5.21597 -5.23926 -5.26847 -5.30082 -5.38561 -5.47642 -5.58492 -5.71586 -5.87197 -5.91777 -5.96499 -6.02285 -6.08138 -6.13641 -6.23131 -6.32793 -6.4262 -6.53978 -6.66807 -6.80377 -6.94206 -7.10041 -7.2625 -7.40867 -7.45944 -7.51042 -7.56255 -7.61838 -7.67717 -7.89418 -8.11479 -8.35212 -8.59778 -8.86098 -8.86884 -8.87671 -8.88474 -8.89304 -8.9014 -9.16421 -9.43109 -9.70543 -9.99016 -10.3453 -10.3605 -10.3758 -10.3913 -10.4069 -10.4225 -10.7159 -11.0113 -11.3098 -11.6117 -11.9865 -11.9936 -12.0006 -12.0076 -12.0146 -12.0215 -12.3414 -12.6628 -12.9836 -13.3015 -13.6069 -13.6834 -13.7599 -13.8345 -13.909 -13.9873 -14.2234 -14.4602 -14.6973 -14.928 -15.1542 -15.3897 -15.6254 -15.8532 -16.0816 -16.3458 -16.4086 -16.4714 -16.5343 -16.5953 -16.6556 -16.9508 -17.2453 -17.538 -17.8204 -18.0982 -18.2987 -18.4962 -18.687 -18.8783 -19.0964 -19.1743 -19.2523 -19.3303 -19.4061 -19.4798 -19.7504 -20.0176 -20.285 -20.5374 -20.786 -21.0445 -21.2972 -21.539 -21.7815 -22.0179 -22.076 -22.1309 -22.1845 -22.2381 -22.2946 -22.4712 -22.6481 -22.8253 -22.9995 -23.1616 -23.3856 -23.608 -23.8233 -24.0207 -24.2169 -24.4249 -24.6305 -24.8188 -25.0036 -25.1819 -25.3586 -25.517 -25.6759 -25.8353 -26.0411 -26.0432 -26.0453 -26.0474 -26.0495 -26.0514 -26.2064 -26.3616 -26.5172 -26.6734 -26.8125 -26.9598 -27.0959 -27.2311 -27.3568 -27.4714 -27.5987 -27.7256 -27.8385 -27.9317 -28.0252 -28.1315 -28.2384 -28.3277 -28.3995 -28.4716 -28.5566 -28.6421 -28.7093 -28.759 -28.8092 -28.8724 -28.9331 -28.9778 -29.0089 -29.0371 -29.0781 -29.1144 -29.1375 -29.1481 -29.1538 -29.1722 -29.1863 -29.1876 -29.1747 -29.1577 -29.1533 -29.1475 -29.127 -29.0882 -29.0488 -29.0217 -28.9952 -28.9514 -28.8893 -28.8276 -28.7782 -28.7292 -28.6627 -28.5791 -28.4959 -28.4246 -28.3501 -28.2591 -28.1602 -28.0562 -27.9639 -27.8557 -27.7438 -27.6323 -27.5121 -27.434 -27.346 -27.2583 -27.1707 -27.0998 -27.0541 -27.0084 -26.9628 -26.9172 -26.8653 -26.7235 -26.5774 -26.4319 -26.2832 -26.1179 -25.9637 -25.8092 -25.6448 -25.4645 -25.2839 -25.1139 -24.9414 -24.7548 -24.5662 -24.3725 -24.2482 -24.1146 -23.9801 -23.8457 -23.7265 -23.6602 -23.5941 -23.5279 -23.4608 -23.3893 -23.1864 -22.9803 -22.7746 -22.5608 -22.3409 -22.1295 -21.9183 -21.6972 -21.4727 -21.2465 -21.1131 -20.9758 -20.8367 -20.6977 -20.5685 -20.4781 -20.3878 -20.2976 -20.2059 -20.1119 -19.882 -19.6517 -19.4213 -19.1843 -18.946 -18.7134 -18.4789 -18.2415 -18.0044 -17.7662 -17.7459 -17.7255 -17.7049 -17.6844 -17.6639 -17.4465 -17.2293 -17.0122 -16.7941 -16.5742 -16.3366 -16.0992 -15.8613 -15.6241 -15.3868 -15.3108 -15.2349 -15.1592 -15.0835 -15.0092 -14.8488 -14.6884 -14.5281 -14.3685 -14.2091 -13.9748 -13.7407 -13.5088 -13.2801 -13.0508 -12.9554 -12.8607 -12.7671 -12.6735 -12.5814 -12.4479 -12.3143 -12.1808 -12.0494 -11.9186 -11.6945 -11.4705 -11.2509 -11.0337 -10.8175 -10.764 -10.7108 -10.6589 -10.6069 -10.5552 -10.3926 -10.23 -10.0675 -9.90815 -9.74984 -9.5396 -9.32974 -9.12582 -8.9219 -8.71966 -8.69709 -8.67471 -8.65288 -8.63105 -8.60924 -8.43104 -8.25285 -8.07466 -7.90028 -7.72742 -7.53312 -7.34024 -7.15203 -6.96382 -6.77619 -6.76955 -6.76298 -6.75656 -6.75014 -6.74372 -6.56589 -6.38804 -6.21019 -6.03616 -5.86412 -5.6862 -5.50986 -5.33775 -5.16562 -4.99419 -4.98726 -4.98041 -4.97372 -4.96702 -4.96032 -4.79926 -4.6382 -4.47713 -4.31947 -4.16408 -4.00264 -3.84206 -3.68609 -3.53011 -3.376 -3.35337 -3.33104 -3.30918 -3.28732 -3.26539 -3.13635 -3.00731 -2.87827 -2.75182 -2.62758 -2.48235 -2.33711 -2.19631 -2.05726 -1.9195 -1.86801 -1.81731 -1.76755 -1.71779 -1.66756 -1.58304 -1.49853 -1.41403 -1.33101 -1.24959 -1.11995 -0.990308 -0.863662 -0.740063 -0.616683 -0.526212 -0.437245 -0.349671 -0.262097 -0.172671 -0.141752 -0.110833 -0.079915 -0.049453 -0.0196089 0.0954091 0.209581 0.323744 0.434988 0.545291 0.654047 0.762099 0.86762 0.973137 1.07801 1.10504 1.13164 1.15793 1.18423 1.2107 1.28585 1.36099 1.43614 1.51049 1.58342 1.68046 1.77749 1.87368 1.96836 2.0629 2.14901 2.23393 2.31817 2.40241 2.48826 2.49449 2.50072 2.50695 2.51313 2.51922 2.60752 2.69596 2.78439 2.87217 2.95892 3.04405 3.12918 3.21349 3.29842 3.38331 3.44285 3.5021 3.56122 3.62034 3.67941 3.70317 3.72693 3.7507 3.77442 3.79806 3.87935 3.96177 4.04419 4.1267 4.20929 4.2906 4.37192 4.45396 4.53675 4.62042 4.66305 4.70611 4.7494 4.79268 4.83531 4.87558 4.91584 4.9561 4.99658 5.03757 5.12116 5.2058 5.291 5.37808 5.4654 5.55194 5.63921 5.72809 5.81696 5.90704 5.92751 5.94833 5.96938 5.99043 6.01126 6.08178 6.15229 6.22279 6.29428 6.36727 6.46104 6.55479 6.65069 6.74867 6.84694 6.91138 6.97681 7.04319 7.10957 7.17383 7.20818 7.24253 7.27687 7.3118 7.34735 7.44996 7.55287 7.65606 7.76203 7.86834 7.96309 8.05878 8.15568 8.25257 8.34584 8.35802 8.37021 8.38239 8.39475 8.40723 8.51754 8.62771 8.73787 8.8494 8.96162 9.07123 9.18112 9.29153 9.40193 9.50933 9.51265 9.51596 9.51927 9.5226 9.52593 9.6399 9.7537 9.86751 9.98098 10.0945 10.2041 10.3132 10.4214 10.5296 10.637 10.6418 10.6466 10.6515 10.6563 10.661 10.7737 10.886 10.9982 11.1084 11.218 11.3173 11.4156 11.5116 11.6076 11.7051 11.7161 11.7272 11.7383 11.749 11.7597 11.8662 11.9716 12.0768 12.1776 12.2775 12.3635 12.448 12.5291 12.6101 12.6944 12.7094 12.7244 12.7394 12.7538 12.7678 12.8632 12.9564 13.0496 13.1364 13.2223 13.2985 13.3726 13.4426 13.5126 13.5874 13.5984 13.6093 13.6203 13.6307 13.6406 13.7202 13.7978 13.8754 13.9463 14.0153 14.0882 14.1579 14.2227 14.2874 14.3511 14.3542 14.3571 14.3598 14.3626 14.3653 14.4228 14.4801 14.5374 14.5906 14.6395 14.6953 14.751 14.7996 14.8449 14.8885 14.9131 14.9353 14.9559 14.9765 14.9989 15.0194 15.0398 15.0601 15.0793 15.0958 15.1351 15.172 15.2075 15.2363 15.2644 15.2969 15.3284 15.3543 15.3794 15.4016 15.4174 15.4303 15.4427 15.4551 15.4692 15.4778 15.4863 15.4948 15.5032 15.5099 15.5294 15.547 15.5645 15.5803 15.5937 15.6101 15.6264 15.6399 15.6507 15.6614 15.675 15.688 15.6993 15.7097 15.7187 15.7306 15.741 15.7514 15.7617 15.7713 15.7756 15.7798 15.7839 15.7881 15.7928 15.7991 15.8053 15.8115 15.8177 15.8244 15.836 15.8471 15.858 15.8689 15.881 15.8944 15.9066 15.9185 15.9317 15.9471 15.9639 15.9766 15.9826 15.9862 15.9886 15.991 15.9932 15.9957 16.0095 16.0236 16.0389 16.0537 16.0167 15.9283 15.8396 15.7444 15.6425 15.5175 15.3895 15.2585 15.1275 15.0072 14.8885 14.7698 14.6641 14.5764 14.4966 14.4167 14.3368 14.2383 14.2377 14.237 14.2364 14.2358 14.2351 14.1648 14.0944 14.024 13.9536 13.8829 13.81 13.7311 13.6521 13.5731 13.4858 13.4002 13.3078 13.2135 13.1157 13.013 12.9115 12.8077 12.6988 12.5837 12.4672 12.351 12.2347 12.1124 11.9843 11.856 11.7272 11.5983 11.4647 11.3263 11.1879 11.0479 10.908 10.7658 10.6219 10.4778 10.3317 10.1854 10.0375 9.88917 9.74067 9.58941 9.43827 9.28744 9.13755 8.98808 8.83541 8.68365 8.53295 8.38363 8.23577 8.08443 7.93492 7.78666 7.63983 7.49551 7.34755 7.2019 7.05733 6.914 6.77367 6.62958 6.4875 6.34621 6.20596 6.06831 5.92674 5.78644 5.64669 5.50781 5.37068 5.22936 5.08894 4.94905 4.81008 4.67237 4.53014 4.38842 4.2472 4.10691 3.96737 3.82297 3.68082 3.54299 3.41051 3.28009 3.14496 3.01036 2.87909 2.75203 2.62534 2.49389 2.36244 2.20953 2.03593 1.86234 1.68222 1.5021 1.35126 1.22849 1.10573 0.978407 0.851088 0.627989 0.313925 0