# vtk DataFile Version 2.0
track0
ASCII
DATASET POLYDATA
POINTS 12950 double
-0.0205 0.001 1e-05
-0.0202034 0.00100015 1e-05
-0.0199069 0.00100058 1e-05
-0.0196103 0.00100127 1e-05
-0.0193137 0.00100221 1e-05
-0.0190172 0.00100342 1e-05
-0.0187132 0.00100487 1e-05
-0.0184093 0.00100642 1e-05
-0.0181054 0.00100804 1e-05
-0.0178015 0.00100975 1e-05
-0.0174976 0.00101153 1e-05
-0.0172058 0.00101332 1e-05
-0.016914 0.00101512 1e-05
-0.0166222 0.00101694 1e-05
-0.0163305 0.00101879 1e-05
-0.0160387 0.00102066 1e-05
-0.0158496 0.00102189 1e-05
-0.0156606 0.00102313 1e-05
-0.0154715 0.00102438 1e-05
-0.0152824 0.00102564 1e-05
-0.015106 0.00102682 1e-05
-0.0150124 0.00102745 1e-05
-0.0149188 0.00102808 1e-05
-0.0148253 0.00102872 1e-05
-0.0147317 0.00102936 1e-05
-0.0146381 0.00103 1e-05
-0.0143692 0.00103184 1e-05
-0.0141002 0.0010337 1e-05
-0.0138313 0.00103557 1e-05
-0.0135624 0.00103746 1e-05
-0.0132934 0.00103935 1e-05
-0.0130353 0.00104118 1e-05
-0.0127771 0.00104301 1e-05
-0.0125189 0.00104485 1e-05
-0.0122607 0.00104668 1e-05
-0.0120025 0.00104851 1e-05
-0.0117547 0.00105027 1e-05
-0.0115068 0.00105203 1e-05
-0.0112589 0.00105378 1e-05
-0.0110111 0.00105552 1e-05
-0.0107632 0.00105726 1e-05
-0.0105252 0.00105892 1e-05
-0.0102873 0.00106058 1e-05
-0.0100493 0.00106222 1e-05
-0.00981133 0.00106386 1e-05
-0.00957337 0.00106549 1e-05
-0.00934491 0.00106704 1e-05
-0.00911645 0.00106859 1e-05
-0.00888799 0.00107012 1e-05
-0.00865954 0.00107164 1e-05
-0.00843108 0.00107315 1e-05
-0.00821175 0.00107459 1e-05
-0.00799242 0.00107603 1e-05
-0.00777309 0.00107744 1e-05
-0.00755376 0.00107885 1e-05
-0.00733443 0.00108025 1e-05
-0.00712387 0.00108158 1e-05
-0.0069133 0.0010829 1e-05
-0.00670273 0.0010842 1e-05
-0.00649216 0.00108549 1e-05
-0.0062816 0.00108677 1e-05
-0.00607944 0.00108799 1e-05
-0.00587729 0.0010892 1e-05
-0.00567514 0.00109039 1e-05
-0.00547298 0.00109156 1e-05
-0.00527083 0.00109273 1e-05
-0.00507675 0.00109383 1e-05
-0.00488267 0.00109492 1e-05
-0.0046886 0.001096 1e-05
-0.00449452 0.00109706 1e-05
-0.00430044 0.00109811 1e-05
-0.00411412 0.00109909 1e-05
-0.0039278 0.00110007 1e-05
-0.00374147 0.00110102 1e-05
-0.00355515 0.00110196 1e-05
-0.00336883 0.00110288 1e-05
-0.00318995 0.00110375 1e-05
-0.00301107 0.0011046 1e-05
-0.00283219 0.00110543 1e-05
-0.00265331 0.00110623 1e-05
-0.00247443 0.00110702 1e-05
-0.0023027 0.00110775 1e-05
-0.00213097 0.00110846 1e-05
-0.00195924 0.00110914 1e-05
-0.0017875 0.00110979 1e-05
-0.00161577 0.00111041 1e-05
-0.0014509 0.00111098 1e-05
-0.00128603 0.00111152 1e-05
-0.00112116 0.00111203 1e-05
-0.000956289 0.00111249 1e-05
-0.000791418 0.00111291 1e-05
-0.000633135 0.00111327 1e-05
-0.000474851 0.0011136 1e-05
-0.000316567 0.00111388 1e-05
-0.000158283 0.00111412 1e-05
0 0.00111432 1e-05
0.000105677 0.00111442 1e-05
0.000211355 0.00111452 1e-05
0.000317032 0.00111459 1e-05
0.00042271 0.00111464 1e-05
0.000528387 0.00111468 1e-05
0.000634886 0.0011147 1e-05
0.000741385 0.00111471 1e-05
0.000847885 0.00111471 1e-05
0.000954384 0.0011147 1e-05
0.00106088 0.00111469 1e-05
0.00116821 0.00111466 1e-05
0.00127554 0.00111462 1e-05
0.00138286 0.00111458 1e-05
0.00149019 0.00111454 1e-05
0.00159752 0.00111449 1e-05
0.00170568 0.00111443 1e-05
0.00181384 0.00111437 1e-05
0.001922 0.0011143 1e-05
0.00203016 0.00111423 1e-05
0.00213833 0.00111416 1e-05
0.00224733 0.00111408 1e-05
0.00235633 0.001114 1e-05
0.00246533 0.00111392 1e-05
0.00257434 0.00111383 1e-05
0.00268334 0.00111374 1e-05
0.00279319 0.00111365 1e-05
0.00290304 0.00111356 1e-05
0.00301289 0.00111347 1e-05
0.00312274 0.00111338 1e-05
0.00323259 0.00111329 1e-05
0.00334329 0.0011132 1e-05
0.003454 0.00111311 1e-05
0.0035647 0.00111302 1e-05
0.0036754 0.00111294 1e-05
0.00378611 0.00111286 1e-05
0.00389767 0.00111278 1e-05
0.00400924 0.0011127 1e-05
0.0041208 0.00111263 1e-05
0.00423237 0.00111257 1e-05
0.00434393 0.0011125 1e-05
0.00445636 0.00111244 1e-05
0.00456879 0.00111238 1e-05
0.00468123 0.00111233 1e-05
0.00479366 0.00111228 1e-05
0.00490609 0.00111224 1e-05
0.0050194 0.0011122 1e-05
0.0051327 0.00111217 1e-05
0.00524601 0.00111214 1e-05
0.00535931 0.00111212 1e-05
0.00547262 0.00111211 1e-05
0.00558681 0.0011121 1e-05
0.005701 0.00111209 1e-05
0.00581518 0.0011121 1e-05
0.00592937 0.00111211 1e-05
0.00604356 0.00111212 1e-05
0.00615863 0.00111215 1e-05
0.00627371 0.00111218 1e-05
0.00638878 0.00111221 1e-05
0.00650386 0.00111226 1e-05
0.00661893 0.00111231 1e-05
0.0067349 0.00111237 1e-05
0.00685087 0.00111243 1e-05
0.00696684 0.0011125 1e-05
0.00708281 0.00111259 1e-05
0.00719878 0.00111267 1e-05
0.00726257 0.00111273 1e-05
0.00732637 0.00111278 1e-05
0.00739016 0.00111284 1e-05
0.00745395 0.0011129 1e-05
0.00751993 0.00111296 1e-05
0.00757257 0.00111302 1e-05
0.00762521 0.00111307 1e-05
0.00767785 0.00111313 1e-05
0.00773049 0.00111318 1e-05
0.00778313 0.00111324 1e-05
0.00790091 0.00111338 1e-05
0.00801869 0.00111352 1e-05
0.00813647 0.00111367 1e-05
0.00825425 0.00111383 1e-05
0.00837203 0.001114 1e-05
0.00849073 0.00111417 1e-05
0.00860942 0.00111435 1e-05
0.00872812 0.00111454 1e-05
0.00884682 0.00111474 1e-05
0.00896551 0.00111495 1e-05
0.00908513 0.00111515 1e-05
0.00920475 0.00111538 1e-05
0.00932437 0.00111561 1e-05
0.00944398 0.00111585 1e-05
0.0095636 0.0011161 1e-05
0.00968415 0.00111633 1e-05
0.0098047 0.0011166 1e-05
0.00992525 0.00111687 1e-05
0.0100458 0.00111715 1e-05
0.0101663 0.00111743 1e-05
0.0102878 0.0011177 1e-05
0.0104093 0.001118 1e-05
0.0105308 0.00111831 1e-05
0.0106523 0.00111863 1e-05
0.0107738 0.00111895 1e-05
0.0108962 0.00111925 1e-05
0.0110186 0.00111958 1e-05
0.0111411 0.00111992 1e-05
0.0112635 0.00112027 1e-05
0.0113859 0.00112062 1e-05
0.0115093 0.00112095 1e-05
0.0116327 0.00112131 1e-05
0.0117561 0.00112168 1e-05
0.0118794 0.00112205 1e-05
0.0120028 0.00112243 1e-05
0.0121272 0.00112278 1e-05
0.0122515 0.00112316 1e-05
0.0123759 0.00112355 1e-05
0.0125002 0.00112394 1e-05
0.0126245 0.00112433 1e-05
0.0127498 0.00112469 1e-05
0.0128752 0.00112509 1e-05
0.0130005 0.00112548 1e-05
0.0131258 0.00112587 1e-05
0.0132511 0.00112626 1e-05
0.0133774 0.00112663 1e-05
0.0135036 0.00112702 1e-05
0.0136299 0.0011274 1e-05
0.0137562 0.00112778 1e-05
0.0138825 0.00112815 1e-05
0.0140098 0.0011285 1e-05
0.014137 0.00112887 1e-05
0.0142643 0.00112922 1e-05
0.0143915 0.00112956 1e-05
0.0145188 0.00112989 1e-05
0.0146471 0.0011302 1e-05
0.0147753 0.00113051 1e-05
0.0149036 0.0011308 1e-05
0.0150318 0.00113107 1e-05
0.0151601 0.00113132 1e-05
0.0152893 0.00113155 1e-05
0.0154186 0.00113176 1e-05
0.0155478 0.00113195 1e-05
0.0156771 0.00113211 1e-05
0.0158063 0.00113224 1e-05
0.0159366 0.00113233 1e-05
0.0160668 0.0011324 1e-05
0.0161971 0.00113243 1e-05
0.0163274 0.00113241 1e-05
0.0164576 0.00113236 1e-05
0.0165889 0.00113226 1e-05
0.0167201 0.00113212 1e-05
0.0168514 0.00113192 1e-05
0.0169827 0.00113166 1e-05
0.0171139 0.00113134 1e-05
0.0172462 0.00113097 1e-05
0.0173785 0.00113053 1e-05
0.0175108 0.00113001 1e-05
0.0176431 0.00112942 1e-05
0.0177754 0.00112875 1e-05
0.0179087 0.001128 1e-05
0.018042 0.00112717 1e-05
0.0181753 0.00112623 1e-05
0.0183087 0.0011252 1e-05
0.018442 0.00112407 1e-05
0.0185763 0.00112284 1e-05
0.0187107 0.0011215 1e-05
0.018845 0.00112003 1e-05
0.0189794 0.00111843 1e-05
0.0191137 0.00111672 1e-05
0.0192491 0.00111488 1e-05
0.0193845 0.00111288 1e-05
0.0195199 0.00111073 1e-05
0.0196553 0.00110842 1e-05
0.0197907 0.00110597 1e-05
0.0199272 0.00110337 1e-05
0.0200636 0.00110057 1e-05
0.0202001 0.00109758 1e-05
0.0203365 0.00109441 1e-05
0.020473 0.00109106 1e-05
0.0206105 0.00108753 1e-05
0.020748 0.00108377 1e-05
0.0208855 0.00107977 1e-05
0.021023 0.00107555 1e-05
0.0211606 0.00107114 1e-05
0.0212991 0.0010665 1e-05
0.0214377 0.00106159 1e-05
0.0215763 0.00105639 1e-05
0.0217148 0.00105095 1e-05
0.0218535 0.00104528 1e-05
0.0219931 0.00103934 1e-05
0.0221328 0.00103308 1e-05
0.0222724 0.00102651 1e-05
0.022412 0.00101965 1e-05
0.0225517 0.00101252 1e-05
0.0226925 0.00100506 1e-05
0.0228332 0.000997248 1e-05
0.0229739 0.000989084 1e-05
0.0231146 0.000980592 1e-05
0.0232555 0.000971774 1e-05
0.0233973 0.000962583 1e-05
0.0235391 0.000952994 1e-05
0.0236809 0.000943028 1e-05
0.0238227 0.000932692 1e-05
0.0239647 0.000921966 1e-05
0.0241076 0.000910818 1e-05
0.0242505 0.000899246 1e-05
0.0243934 0.000887269 1e-05
0.0245362 0.000874885 1e-05
0.0246794 0.000862063 1e-05
0.0246996 0.000860191 1e-05
0.0247199 0.00085831 1e-05
0.0247401 0.00085642 1e-05
0.0247604 0.000854521 1e-05
0.0247798 0.000852695 1e-05
0.0249038 0.000840971 1e-05
0.0250277 0.000828924 1e-05
0.0251516 0.000816553 1e-05
0.0252755 0.000803859 1e-05
0.0253996 0.000790806 1e-05
0.0255448 0.000775182 1e-05
0.0256899 0.000759042 1e-05
0.025835 0.000742435 1e-05
0.02598 0.000725359 1e-05
0.0261255 0.000707765 1e-05
0.0262718 0.000689626 1e-05
0.026418 0.000670941 1e-05
0.0265642 0.00065171 1e-05
0.0267103 0.000631984 1e-05
0.026857 0.000611702 1e-05
0.0270044 0.000590838 1e-05
0.0271518 0.000569414 1e-05
0.0272991 0.000547438 1e-05
0.0274463 0.000524931 1e-05
0.0275942 0.000501768 1e-05
0.027685 0.000487241 1e-05
0.0277757 0.000472502 1e-05
0.0278664 0.000457561 1e-05
0.027957 0.000442416 1e-05
0.0280358 0.000429085 1e-05
0.028096 0.000418755 1e-05
0.0281563 0.000408333 1e-05
0.0282165 0.000397816 1e-05
0.0282767 0.000387206 1e-05
0.0283371 0.000376473 1e-05
0.0284869 0.000349622 1e-05
0.0286365 0.000322156 1e-05
0.028786 0.000294118 1e-05
0.0289354 0.0002655 1e-05
0.0290858 0.000236109 1e-05
0.0292367 0.000206028 1e-05
0.0293875 0.000175324 1e-05
0.0295381 0.000143989 1e-05
0.0296887 0.000112053 1e-05
0.0298403 7.92517e-05 1e-05
0.0299123 6.34014e-05 1e-05
0.0299842 4.74117e-05 1e-05
0.0300561 3.12865e-05 1e-05
0.0301279 1.50275e-05 1e-05
0.0301938 0 1e-05
0.0302752 -1.87256e-05 1e-05
0.0303565 -3.76342e-05 1e-05
0.0304378 -5.67273e-05 1e-05
0.0305191 -7.60068e-05 1e-05
0.0306007 -9.55738e-05 1e-05
0.030754 -0.000132668 1e-05
0.0309071 -0.000170428 1e-05
0.03106 -0.000208859 1e-05
[...]
POINT_DATA 12950
 FIELD attributes 1
U 3 12950 float
10.0018 	0.00519963 	0 10.0082 	0.0143768 	0 10.0148 	0.0231752 	0 10.0213 	0.0319486 	0 10.0279 	0.0406971 	0 10.0392 	0.0482045 	0 10.0458 	0.0510381 	0 10.0543 	0.0537366 	0 10.0628 	0.0564311 	0 10.0713 	0.0591216 	0 10.0826 	0.0617414 	0 10.087 	0.0621797 	0 10.0936 	0.063073 	0 10.1001 	0.063966 	0 10.1066 	0.0648586 	0 10.1142 	0.0658714 	0 10.1168 	0.0662647 	0 10.1202 	0.0667909 	0 10.1236 	0.0673169 	0 10.127 	0.0678428 	0 10.1302 	0.0683335 	0 10.1319 	0.0685953 	0 10.1336 	0.0688571 	0 10.1353 	0.0691189 	0 10.1371 	0.0693807 	0 10.1389 	0.0696369 	0 10.143 	0.0701246 	0 10.1473 	0.0706038 	0 10.1516 	0.0710829 	0 10.1559 	0.0715618 	0 10.1608 	0.0720009 	0 10.1636 	0.0720871 	0 10.1672 	0.0721534 	0 10.1708 	0.0722196 	0 10.1745 	0.0722858 	0 10.1793 	0.0723175 	0 10.1808 	0.0721072 	0 10.1836 	0.07189 	0 10.1864 	0.0716729 	0 10.1893 	0.0714559 	0 10.1938 	0.0712434 	0 10.1943 	0.0708666 	0 10.1964 	0.070496 	0 10.1984 	0.0701255 	0 10.2005 	0.0697552 	0 10.2047 	0.069419 	0 10.2045 	0.0689485 	0 10.206 	0.0684872 	0 10.2074 	0.0680261 	0 10.2089 	0.0675651 	0 10.2126 	0.0671483 	0 10.2122 	0.0666127 	0 10.2132 	0.0660814 	0 10.2142 	0.0655502 	0 10.2152 	0.0650192 	0 10.2183 	0.0645285 	0 10.2181 	0.0639367 	0 10.2187 	0.0633353 	0 10.2193 	0.0627341 	0 10.22 	0.0621331 	0 10.2223 	0.0615586 	0 10.2227 	0.0609135 	0 10.223 	0.0602315 	0 10.2234 	0.0595496 	0 10.2237 	0.0588679 	0 10.2252 	0.058182 	0 10.2263 	0.0574715 	0 10.2265 	0.056682 	0 10.2266 	0.0558926 	0 10.2268 	0.0551033 	0 10.2272 	0.0542606 	0 10.2294 	0.0534509 	0 10.2294 	0.0525014 	0 10.2295 	0.0515519 	0 10.2296 	0.0506025 	0 10.2288 	0.0495318 	0 10.2321 	0.0485543 	0 10.2321 	0.0473347 	0 10.2321 	0.0461151 	0 10.232 	0.0448933 	0 10.2299 	0.0434665 	0 10.2344 	0.042174 	0 10.2344 	0.0405372 	0 10.2342 	0.0388895 	0 10.2339 	0.0372281 	0 10.2304 	0.0353376 	0 10.2358 	0.0335899 	0 10.2356 	0.0311841 	0 10.2349 	0.0287267 	0 10.2339 	0.0262418 	0 10.2287 	0.0234825 	0 10.2344 	0.0210167 	0 10.2337 	0.0182578 	-3.10594e-24 10.2322 	0.0154656 	-6.56531e-24 10.2301 	0.012716 	-3.78875e-23 10.2229 	0.010306 	-2.90635e-22 10.2287 	0.00885681 	4.23087e-21 10.2273 	0.00710312 	4.27879e-21 10.2252 	0.00531638 	3.84326e-21 10.2228 	0.00353152 	3.14783e-21 10.2143 	0.001783 	-2.04268e-21 10.2201 	0.00105503 	-3.55709e-21 10.2177 	0.00013922 	-3.56362e-21 10.2152 	-0.000780544 	-3.53934e-21 10.2128 	-0.00170045 	-3.51485e-21 10.2037 	-0.00283123 	-1.58523e-21 10.2092 	-0.00315438 	-1.14491e-21 10.2068 	-0.00370262 	-7.77141e-22 10.2043 	-0.00425095 	-4.09401e-22 10.2018 	-0.00479937 	-4.16885e-23 10.1931 	-0.0055819 	2.00551e-22 10.1985 	-0.0056924 	-6.18718e-23 10.1962 	-0.00612795 	-4.90402e-22 10.194 	-0.00656358 	-9.18957e-22 10.1917 	-0.00699928 	-1.34754e-21 10.1833 	-0.00765534 	-1.89742e-21 10.1885 	-0.00748877 	-2.71902e-21 10.1863 	-0.00773555 	-2.5854e-21 10.1841 	-0.00798237 	-2.45175e-21 10.1818 	-0.00822925 	-2.31807e-21 10.1738 	-0.00878346 	-1.36188e-21 10.1786 	-0.00827722 	-3.11731e-22 10.1764 	-0.00827095 	1.16089e-22 10.1742 	-0.00826468 	5.43909e-22 10.172 	-0.00825841 	9.7173e-22 10.1643 	-0.00869645 	6.58002e-22 10.1687 	-0.00795425 	3.18001e-22 10.1665 	-0.00774201 	1.59361e-22 10.1643 	-0.00752972 	7.09914e-25 10.1621 	-0.00731737 	-1.57952e-22 10.1549 	-0.0076187 	-1.41943e-22 10.1588 	-0.00679828 	-5.69183e-22 10.1566 	-0.00644718 	-3.47352e-22 10.1543 	-0.006096 	-1.25581e-22 10.1521 	-0.00574472 	9.61276e-23 10.1454 	-0.00586819 	7.10781e-22 10.1486 	-0.00507124 	1.8647e-21 10.1463 	-0.00461999 	2.48045e-21 10.144 	-0.00416863 	3.09626e-21 10.1417 	-0.00371718 	3.71212e-21 10.1354 	-0.00362612 	3.59767e-21 10.1378 	-0.00288755 	4.31659e-21 10.1353 	-0.00235784 	4.06912e-21 10.1329 	-0.00182804 	3.82176e-21 10.1304 	-0.00129816 	3.5745e-21 10.1247 	-0.000992088 	2.57737e-21 10.1261 	-0.000306115 	2.1846e-21 10.1234 	0.000282577 	1.61015e-21 10.1208 	0.000871332 	1.03566e-21 10.1181 	0.00146015 	4.61121e-22 10.1129 	0.00194093 	-7.9618e-23 10.1132 	0.0025973 	0 10.1103 	0.00322553 	0 10.1074 	0.00385379 	0 10.1045 	0.00448208 	0 10.1 	0.00507592 	0 10.0989 	0.00572751 	1.36914e-21 10.0957 	0.00637901 	2.91466e-21 10.0925 	0.00703051 	4.46003e-21 10.0893 	0.00768202 	6.00527e-21 10.0855 	0.00832987 	7.58522e-21 10.0844 	0.00869 	7.83813e-21 10.0825 	0.00905189 	7.89687e-21 10.0806 	0.00941378 	7.95573e-21 10.0786 	0.00977567 	8.0147e-21 10.0766 	0.01015 	8.07581e-21 10.075 	0.0104486 	8.16327e-21 10.0734 	0.0107472 	8.2507e-21 10.0718 	0.0110458 	8.3381e-21 10.0702 	0.0113444 	8.42547e-21 10.0647 	0.0113978 	8.4383e-21 10.0645 	0.0123066 	6.22818e-21 10.0606 	0.012972 	3.66644e-21 10.0566 	0.0136373 	1.10375e-21 10.0527 	0.0143027 	-1.45989e-21 10.0355 	0.0141582 	-4.88179e-21 10.0437 	0.0156007 	-4.97587e-21 10.0393 	0.0162598 	-5.10606e-21 10.0349 	0.016919 	-5.23648e-21 10.0306 	0.0175781 	-5.36711e-21 10.0036 	0.0168833 	-5.67558e-21 10.0201 	0.0188029 	-4.48827e-21 10.0153 	0.0194446 	-3.29144e-21 10.0105 	0.0200864 	-2.09472e-21 10.0057 	0.0207283 	-8.98121e-22 9.96906 	0.0195402 	1.23715e-22 9.99359 	0.0218396 	1.10339e-21 9.98835 	0.0224491 	2.58607e-21 9.98311 	0.0230587 	4.06889e-21 9.97788 	0.0236684 	5.55186e-21 9.93207 	0.0220738 	7.03675e-21 9.96411 	0.0246306 	7.41901e-21 9.95845 	0.0251883 	8.71346e-21 9.95281 	0.0257462 	1.00083e-20 9.94717 	0.0263042 	1.13035e-20 9.89302 	0.0244035 	1.39074e-20 9.93173 	0.0270819 	2.10807e-20 9.92573 	0.0275608 	1.9827e-20 9.91973 	0.0280399 	1.85717e-20 9.91374 	0.0285193 	1.73148e-20 9.85244 	0.026413 	6.89631e-21 9.89678 	0.029065 	4.7025e-21 9.89052 	0.0294166 	3.35709e-21 9.88427 	0.0297684 	2.01175e-21 9.87803 	0.0301203 	6.66492e-22 9.81102 	0.027883 	0 9.85983 	0.0303473 	0 9.85348 	0.0305251 	0 9.84714 	0.030703 	0 9.84079 	0.030881 	0 9.7697 	0.0286082 	0 9.82186 	0.030774 	-6.39106e-22 9.81557 	0.0307182 	-2.14956e-21 9.80928 	0.0306624 	-3.66e-21 9.80299 	0.0306066 	-5.17044e-21 9.72934 	0.0283133 	-8.03425e-21 9.78369 	0.0300671 	-2.3958e-20 9.77764 	0.0296913 	-2.42642e-20 9.77158 	0.0293153 	-2.45719e-20 9.76551 	0.0289391 	-2.4881e-20 9.69093 	0.0266024 	-8.01045e-21 9.74648 	0.0277727 	-5.0502e-21 9.74085 	0.0269674 	-3.71976e-21 9.7352 	0.0261615 	-2.38911e-21 9.72953 	0.0253551 	-1.05824e-21 9.65546 	0.0229683 	-2.40915e-21 9.71138 	0.0233658 	-1.32539e-20 9.70638 	0.0219782 	-1.32892e-20 9.70136 	0.0205898 	-1.3328e-20 9.69629 	0.0192004 	-1.33703e-20 9.62402 	0.0166846 	-8.20577e-22 9.67975 	0.0161046 	1.21064e-20 9.67561 	0.013966 	1.35278e-20 9.67142 	0.0118262 	1.49536e-20 9.66717 	0.00968512 	1.63839e-20 9.59773 	0.00695894 	7.67636e-21 9.65306 	0.00513422 	2.05957e-20 9.64994 	0.00205137 	2.06961e-20 9.64673 	-0.00103291 	2.08045e-20 9.64344 	-0.00411862 	2.09208e-20 9.57744 	-0.00714961 	6.03223e-21 9.63252 	-0.0104054 	3.12462e-21 9.63058 	-0.0146869 	2.06789e-21 9.62852 	-0.0189696 	1.01046e-21 9.62375 	-0.0232262 	0 9.56409 	-0.0269043 	0 9.6154 	-0.0319769 	0 9.61928 	-0.0376112 	0 9.61849 	-0.0432994 	0 9.60998 	-0.048804 	-3.77018e-24 9.55847 	-0.0532649 	-2.89115e-23 9.60694 	-0.0601513 	-4.94446e-24 9.61734 	-0.0673482 	0 9.6177 	-0.074625 	0 9.60543 	-0.0814645 	-6.96147e-24 9.56031 	-0.0871552 	-3.22505e-23 9.60693 	-0.0961882 	-8.4024e-24 9.62424 	-0.105283 	1.03271e-21 9.62549 	-0.11441 	2.62608e-21 9.60904 	-0.122721 	5.58177e-21 9.56887 	-0.129938 	1.03733e-20 9.6147 	-0.141703 	4.22262e-20 9.64001 	-0.153196 	5.98566e-20 9.64194 	-0.16438 	6.12371e-20 9.62026 	-0.174032 	4.24234e-20 9.5833 	-0.182698 	1.06227e-20 9.62905 	-0.197398 	5.95508e-21 9.66408 	-0.211777 	2.0001e-21 9.66625 	-0.225171 	2.9186e-22 9.63751 	-0.236064 	1.25692e-21 9.6021 	-0.246433 	2.77529e-21 9.64807 	-0.264187 	1.41482e-21 9.69348 	-0.281918 	5.82585e-23 9.69371 	-0.297418 	2.39193e-21 9.65868 	-0.30977 	-1.34817e-21 9.6232 	-0.322107 	-5.11111e-21 9.66898 	-0.343035 	-3.42768e-20 9.71412 	-0.363933 	-6.34715e-20 9.71734 	-0.381604 	-6.45367e-20 9.681 	-0.395935 	-3.77296e-20 9.64417 	-0.410252 	-1.09375e-20 9.68859 	-0.434264 	6.91749e-20 9.73235 	-0.45824 	1.49234e-19 9.7398 	-0.478621 	1.56275e-19 9.70135 	-0.495164 	8.87127e-20 9.66235 	-0.511696 	2.10557e-20 9.70399 	-0.538789 	9.11765e-21 9.73745 	-0.565015 	-1.90828e-21 9.7416 	-0.588035 	-9.31882e-21 9.71729 	-0.608307 	-1.11667e-20 9.67577 	-0.626957 	-9.72262e-21 9.71321 	-0.656774 	-1.51087e-20 9.72469 	-0.68357 	-2.87689e-20 9.72478 	-0.709061 	-4.59848e-20 9.72408 	-0.734499 	-6.3311e-20 9.68119 	-0.755054 	-1.21148e-19 9.70269 	-0.78565 	-2.31295e-19 9.69817 	-0.813031 	-1.79092e-19 9.69288 	-0.840362 	-1.25934e-19 9.68682 	-0.867643 	-7.18228e-20 9.67462 	-0.8942 	2.63103e-21 9.67637 	-0.898635 	1.79918e-20 9.67495 	-0.902667 	1.49013e-20 9.67351 	-0.906699 	1.17993e-20 9.67206 	-0.91073 	8.68552e-21 9.67066 	-0.914589 	5.69227e-21 9.66155 	-0.939126 	3.56047e-21 9.6519 	-0.963629 	1.42714e-21 9.64171 	-0.988099 	-7.07716e-22 9.63097 	-1.01253 	-2.84409e-21 9.61331 	-1.03458 	-3.87023e-21 9.61894 	-1.06988 	-3.63637e-21 9.60174 	-1.09922 	-1.58865e-20 9.58387 	-1.12854 	-2.80382e-20 9.55916 	-1.15593 	-4.06294e-20 9.52621 	-1.18109 	-5.38244e-20 9.52646 	-1.21725 	-3.36609e-20 9.52585 	-1.25335 	-1.34026e-20 9.50179 	-1.28296 	0 9.46069 	-1.30785 	0 9.41878 	-1.33284 	0 9.41081 	-1.36821 	0 9.39685 	-1.40213 	5.95943e-23 9.37038 	-1.43279 	2.53554e-22 9.34027 	-1.46257 	-5.63599e-22 9.29052 	-1.48697 	-8.08642e-21 9.28037 	-1.50756 	-5.10927e-20 9.26004 	-1.52551 	-5.48108e-20 9.2387 	-1.54325 	-5.54884e-20 9.21709 	-1.56099 	-5.60149e-20 9.19808 	-1.57639 	-5.63404e-20 9.18389 	-1.5886 	-5.13982e-20 9.16957 	-1.60082 	-4.63415e-20 9.15514 	-1.61303 	-4.11699e-20 9.13983 	-1.62495 	-4.12279e-20 9.12079 	-1.6355 	-6.66686e-20 9.09294 	-1.66913 	1.83326e-20 9.05093 	-1.69723 	4.51301e-20 9.00826 	-1.72538 	7.28752e-20 8.95659 	-1.75035 	1.54799e-20 8.90016 	-1.77411 	-7.9922e-20 8.86399 	-1.80506 	-3.53157e-20 8.82704 	-1.83602 	9.61757e-21 8.7769 	-1.8622 	3.66121e-21 8.72006 	-1.88587 	-5.31962e-21 8.65498 	-1.90676 	-1.71562e-20 8.63349 	-1.91957 	-4.77038e-21 8.60814 	-1.93098 	0 8.58031 	-1.94151 	0 8.55233 	-1.95206 	0 8.52653 	-1.96173 	0 8.49662 	-1.97498 	0 8.46652 	-1.98825 	0 8.43621 	-2.00154 	0 8.4029 	-2.0138 	0 8.36531 	-2.02467 	0 8.31237 	-2.05018 	0 8.25704 	-2.07499 	0 8.18996 	-2.09499 	-3.10731e-21 8.11259 	-2.11156 	-1.66631e-20 8.03369 	-2.12839 	-3.04233e-20 7.98411 	-2.14495 	-2.6325e-20 7.92979 	-2.15998 	-2.71952e-20 7.86973 	-2.1731 	-3.41898e-20 7.80916 	-2.18627 	-4.12742e-20 7.7558 	-2.19783 	-4.75451e-20 7.73952 	-2.20232 	-5.34082e-20 7.72321 	-2.20682 	-5.92941e-20 7.70686 	-2.21132 	-6.52028e-20 7.68894 	-2.21523 	-5.90314e-20 7.66965 	-2.21867 	-4.2815e-20 7.60022 	-2.23718 	-2.90514e-20 7.52278 	-2.25215 	-1.89329e-20 7.44468 	-2.26729 	-8.69484e-21 7.35477 	-2.27852 	8.8328e-21 7.26207 	-2.28977 	2.72741e-20 7.19532 	-2.30164 	-1.89551e-20 7.12471 	-2.31254 	-3.64315e-20 7.04715 	-2.32146 	1.6473e-21 6.96896 	-2.33048 	4.02465e-20 6.90039 	-2.33842 	7.42818e-20 6.88544 	-2.34077 	8.69003e-20 6.87046 	-2.34314 	9.95553e-20 6.85546 	-2.34551 	1.12247e-19 6.83926 	-2.34742 	1.00749e-19 6.82237 	-2.3491 	7.66247e-20 6.73555 	-2.36082 	4.48897e-20 6.64311 	-2.37029 	1.69692e-20 6.54989 	-2.38 	-1.09301e-20 6.44615 	-2.38692 	1.62885e-20 6.33916 	-2.39416 	4.57764e-20 6.27172 	-2.40035 	-9.03625e-22 6.20236 	-2.40637 	-2.922e-20 6.12727 	-2.41145 	7.504e-21 6.05165 	-2.41666 	4.4796e-20 5.98449 	-2.42138 	7.8185e-20 5.9522 	-2.42444 	9.52796e-20 5.91981 	-2.42754 	1.12495e-19 5.88731 	-2.43068 	1.29834e-19 5.85263 	-2.4332 	9.41006e-20 5.81692 	-2.43558 	4.27858e-20 5.71262 	-2.44478 	-2.13602e-20 5.60716 	-2.45431 	-8.55908e-20 5.49447 	-2.46188 	-1.09402e-19 5.37589 	-2.46846 	-9.1719e-20 5.25174 	-2.47576 	-7.38357e-20 5.21111 	-2.47887 	-7.31149e-20 5.17024 	-2.48201 	-7.24246e-20 5.12746 	-2.48454 	-7.13305e-20 5.08449 	-2.48713 	-7.0287e-20 5.04458 	-2.48959 	-6.93697e-20 4.96732 	-2.49547 	-4.86312e-20 4.88946 	-2.50159 	-2.77996e-20 4.81099 	-2.50796 	-6.87264e-21 4.73048 	-2.51207 	-5.29785e-21 4.64619 	-2.51639 	-5.067e-21 4.54354 	-2.52435 	-1.20507e-20 4.43972 	-2.53275 	-1.89498e-20 4.33483 	-2.53777 	-9.41916e-21 4.22874 	-2.5431 	8.58238e-22 4.14212 	-2.54778 	9.29643e-21 4.11565 	-2.54975 	1.18147e-20 4.08911 	-2.55175 	1.43442e-20 4.06255 	-2.55364 	1.63555e-20 4.03651 	-2.55429 	1.36542e-20 4.00987 	-2.55498 	1.0904e-20 3.8834 	-2.56239 	6.54517e-21 3.75507 	-2.57057 	2.23188e-21 3.62753 	-2.57534 	4.16873e-22 3.49981 	-2.5778 	7.08756e-22 3.35485 	-2.58106 	1.85153e-21 3.34938 	-2.58137 	2.82724e-21 3.34391 	-2.58168 	3.80194e-21 3.33856 	-2.58181 	3.38956e-21 3.33331 	-2.58183 	2.08382e-21 3.32811 	-2.58184 	7.91165e-22 3.2037 	-2.58458 	-2.9169e-20 3.07756 	-2.58833 	-5.98777e-20 2.9517 	-2.59076 	-7.38104e-20 2.82875 	-2.58888 	-4.88559e-20 2.68252 	-2.58793 	-2.03303e-20 2.66767 	-2.5884 	-2.03827e-20 2.65278 	-2.58889 	-2.0438e-20 2.6382 	-2.58904 	-1.96946e-20 2.62404 	-2.58872 	-1.78359e-20 2.61029 	-2.58842 	-1.60346e-20 2.48859 	-2.58851 	-7.8508e-21 2.36522 	-2.58986 	-6.13092e-23 2.24423 	-2.5887 	7.26125e-21 2.12548 	-2.58523 	1.41103e-20 1.97758 	-2.58246 	2.2525e-20 1.97614 	-2.58248 	2.28914e-20 1.9747 	-2.58251 	2.3258e-20 1.97335 	-2.58246 	2.31534e-20 1.97203 	-2.58239 	2.28939e-20 1.97069 	-2.58232 	2.26333e-20 1.85481 	-2.58061 	1.54323e-20 1.7375 	-2.5802 	8.51205e-21 1.62082 	-2.57968 	7.1124e-21 1.50987 	-2.57533 	2.42071e-20 1.42064 	-2.57302 	3.79086e-20 1.37168 	-2.5739 	3.29114e-20 1.32275 	-2.57494 	2.83421e-20 1.2782 	-2.57333 	3.30522e-20 1.23343 	-2.57204 	3.76339e-20 1.17507 	-2.5708 	4.34096e-20 1.12573 	-2.57177 	7.53095e-20 1.07625 	-2.57309 	1.06074e-19 1.02663 	-2.57476 	1.35674e-19 0.980301 	-2.57477 	1.13206e-19 0.938606 	-2.57424 	7.00687e-20 0.850299 	-2.57758 	-3.52173e-20 0.761606 	-2.58246 	-1.427e-19 0.678014 	-2.58156 	-1.45716e-19 0.602586 	-2.57611 	-6.13403e-20 0.534365 	-2.57226 	1.52289e-20 0.460207 	-2.57375 	1.14245e-19 0.394194 	-2.57208 	1.4537e-19 0.337197 	-2.56668 	1.01862e-19 0.280121 	-2.56192 	5.53162e-20 0.229533 	-2.55164 	-6.5381e-20 0.182287 	-2.54569 	-1.38003e-19 0.147253 	-2.53237 	-1.03661e-19 0.111896 	-2.51974 	-7.11839e-20 0.0762155 	-2.50781 	-4.06185e-20 0.0434206 	-2.49189 	3.13845e-20 0.0189888 	-2.47395 	2.9459e-20 0.00072759 	-2.45202 	1.91459e-20 -0.0177613 	-2.43047 	8.76608e-21 -0.0364838 	-2.40931 	-1.682e-21 -0.0530891 	-2.38444 	-7.82141e-21 -0.0631804 	-2.3588 	-1.69658e-20 -0.0680906 	-2.3294 	-3.78033e-20 -0.0730942 	-2.30012 	-5.85608e-20 -0.078195 	-2.27097 	-7.92348e-20 -0.0806592 	-2.23712 	-1.02413e-19 -0.0803392 	-2.20625 	-1.48146e-19 -0.0738907 	-2.17044 	-1.27845e-19 -0.0673362 	-2.1345 	-1.07317e-19 -0.0606699 	-2.09843 	-8.65498e-20 -0.0503972 	-2.0567 	1.14804e-20 -0.040027 	-2.02122 	9.86862e-20 -0.0227352 	-1.97981 	9.92669e-20 -0.00503377 	-1.93798 	9.87149e-20 0.013104 	-1.89569 	9.69529e-20 0.0355161 	-1.84762 	-1.81408e-20 0.0581963 	-1.80604 	-5.4538e-21 0.086836 	-1.75924 	-3.74214e-21 0.116327 	-1.71162 	-2.0713e-21 0.14673 	-1.66313 	-4.45249e-22 0.180704 	-1.61029 	-7.39757e-21 0.214082 	-1.56633 	-5.57487e-21 0.251108 	-1.51959 	-2.1075e-20 0.289272 	-1.47186 	-3.69899e-20 0.319405 	-1.43452 	-4.95059e-20 0.334227 	-1.41542 	-5.30885e-20 0.349194 	-1.39616 	-5.6574e-20 0.364306 	-1.37675 	-5.99587e-20 0.379768 	-1.35705 	-6.32395e-20 0.396968 	-1.33588 	-6.65199e-20 0.449797 	-1.27785 	-4.59315e-20 0.505498 	-1.21685 	-2.46117e-20 0.562559 	-1.15433 	-2.58636e-21 0.622793 	-1.09054 	1.23096e-22 0.699015 	-1.01017 	1.4903e-22 0.728439 	-0.981513 	8.56266e-23 0.757995 	-0.952659 	2.16121e-23 0.787228 	-0.924551 	-3.74801e-21 0.816311 	-0.896778 	-9.42303e-21 0.834009 	-0.879838 	-1.28941e-20 0.88757 	-0.82347 	-1.18657e-20 0.940843 	-0.766814 	-1.01288e-20 0.991252 	-0.713482 	-7.69511e-21 1.04018 	-0.661472 	-4.61654e-21 1.11583 	-0.580154 	0 1.1192 	-0.575993 	0 1.12238 	-0.572079 	-9.80242e-22 1.12541 	-0.568372 	-2.77368e-21 1.12843 	-0.564667 	-4.56572e-21 1.13168 	-0.560668 	-6.49915e-21 1.16951 	-0.516384 	-1.59742e-20 1.20642 	-0.472393 	-2.63285e-20 1.24235 	-0.428767 	-3.75109e-20 1.27519 	-0.387458 	-3.90722e-20 1.29841 	-0.356481 	-2.50839e-20 1.32792 	-0.314653 	1.04462e-19 1.35635 	-0.273098 	2.11467e-19 1.38288 	-0.231558 	2.19807e-19 1.40398 	-0.195187 	8.761e-20 1.42284 	-0.161798 	-3.66266e-20 1.44276 	-0.12396 	-2.28617e-20 1.46195 	-0.0864845 	-1.03496e-20 1.47888 	-0.0502269 	-1.33116e-20 1.49339 	-0.0158049 	-3.82534e-20 1.507 	0.0176558 	-6.29045e-20 1.51943 	0.0524956 	-1.75554e-19 1.53122 	0.0870125 	-2.88328e-19 1.54189 	0.121333 	-2.73512e-19 1.55142 	0.15479 	-1.35306e-19 1.56046 	0.188296 	4.24953e-21 1.5667 	0.220739 	-6.82609e-20 1.57236 	0.252889 	-1.39982e-19 1.57708 	0.285985 	-1.26692e-19 1.58158 	0.317534 	-4.8432e-20 1.58572 	0.349467 	4.62061e-20 1.58674 	0.378742 	2.5228e-20 1.58646 	0.408003 	1.56024e-20 1.58533 	0.437093 	1.06985e-20 1.58368 	0.465903 	5.95301e-21 1.58149 	0.494253 	1.87989e-20 1.58048 	0.501912 	6.06363e-20 1.57793 	0.510203 	4.88152e-20 1.57524 	0.518509 	3.38019e-20 1.57249 	0.526792 	1.85481e-20 1.57009 	0.533841 	5.32779e-21 1.56514 	0.552009 	-2.6485e-20 1.55996 	0.570108 	-5.93404e-20 1.55456 	0.588137 	-9.3233e-20 1.54874 	0.606522 	-1.10192e-19 1.54128 	0.628206 	-1.94862e-20 1.52315 	0.6576 	-6.27717e-21 1.5048 	0.685335 	1.38758e-21 1.48673 	0.70995 	3.37964e-21 1.47002 	0.731788 	3.99492e-20 1.45135 	0.755498 	7.98907e-20 1.42346 	0.781815 	2.42312e-19 1.4012 	0.797276 	3.01682e-19 1.38602 	0.799599 	2.36402e-19 1.37074 	0.801855 	1.70487e-19 1.35938 	0.803473 	1.21294e-19 1.35618 	0.806143 	1.33671e-19 1.35297 	0.808817 	1.46101e-19 1.34975 	0.811495 	1.58586e-19 1.3469 	0.813068 	1.36243e-19 1.34416 	0.814159 	9.76604e-20 1.32901 	0.806177 	-1.30153e-19 1.31035 	0.798812 	-2.8799e-19 1.29106 	0.792313 	-4.41376e-19 1.23176 	0.839956 	-2.86126e-19 1.16936 	0.890636 	-1.29462e-19 1.14131 	0.896532 	-1.00995e-19 1.11307 	0.902883 	-7.28693e-20 1.03753 	0.995686 	-8.19273e-20 0.961268 	1.09077 	-9.29486e-20 0.911635 	1.15354 	-1.01331e-19 0.852066 	1.22633 	-7.25493e-20 0.794441 	1.29769 	-4.32046e-20 0.718102 	1.40622 	5.4637e-21 0.631764 	1.53654 	6.63825e-20 0.431697 	1.84291 	2.13617e-19 0.411363 	1.87398 	2.0833e-19 0.391365 	1.9047 	2.04216e-19 0.371691 	1.93507 	2.01227e-19 0.352332 	1.96509 	1.99318e-19 0.337182 	1.99353 	2.68033e-19 0.261187 	2.13837 	4.03143e-19 0.193356 	2.27142 	4.26086e-19 0.130303 	2.39824 	4.34092e-19 0.0713133 	2.51972 	4.29589e-19 0.0441797 	2.60565 	1.44246e-19 0.0107532 	2.70908 	-1.20846e-19 -0.0150606 	2.79469 	-2.18494e-19 -0.0398978 	2.87876 	-3.13719e-19 -0.0638491 	2.96143 	-4.06743e-19 -0.0631004 	3.01282 	-2.82149e-19 -0.0703973 	3.08415 	-2.08878e-19 -0.0731987 	3.14011 	-1.07155e-19 -0.0759644 	3.196 	-5.45004e-21 -0.0786964 	3.25183 	9.62372e-20 -0.0654367 	3.28483 	1.36178e-19 -0.0554601 	3.33169 	1.07424e-19 -0.043099 	3.36675 	3.48291e-20 -0.0309208 	3.40228 	-3.77696e-20 -0.0189193 	3.43826 	-1.10371e-19 0.0041063 	3.45674 	-2.02448e-19 0.0267908 	3.4855 	-3.04327e-19 0.0506797 	3.50445 	-3.04449e-19 0.0743895 	3.52409 	-3.06378e-19 0.0979226 	3.54442 	-3.10081e-19 0.1315 	3.54716 	-1.06756e-19 0.164405 	3.56419 	9.44747e-20 0.198036 	3.57015 	1.83123e-19 0.231574 	3.57696 	2.74942e-19 0.265016 	3.58461 	3.69897e-19 0.3112 	3.56847 	2.28638e-19 0.355374 	3.58004 	1.15519e-19 0.40036 	3.57631 	7.06204e-20 0.445399 	3.57312 	2.74963e-20 0.495543 	3.56124 	1.24673e-21 0.555218 	3.53328 	4.70035e-21 0.610315 	3.53553 	2.26725e-21 0.665515 	3.53793 	-3.45458e-21 0.720712 	3.52473 	-8.2705e-20 0.78349 	3.4925 	-2.04555e-19 0.848226 	3.4606 	-3.28002e-19 0.909654 	3.45718 	-5.38246e-19 0.971996 	3.45234 	-7.27319e-19 1.03987 	3.43089 	-7.65646e-19 1.10757 	3.40647 	-7.35303e-19 1.17788 	3.37484 	-5.80497e-19 1.21643 	3.37205 	-5.02631e-19 1.25676 	3.36191 	-4.97144e