/*--------------------------------*- C++ -*----------------------------------*\
| =========                 |                                                 |
| \\      /  F ield         | OpenFOAM: The Open Source CFD Toolbox           |
|  \\    /   O peration     | Version:  2112                                  |
|   \\  /    A nd           | Website:  www.openfoam.com                      |
|    \\/     M anipulation  |                                                 |
\*---------------------------------------------------------------------------*/
FoamFile
{
    version     2.0;
    format      ascii;
    arch        "LSB;label=32;scalar=64";
    class       volScalarField;
    location    "200";
    object      k;
}
// * * * * * * * * * * * * * * * * * * * * * * * * * * * * * * * * * * * * * //

dimensions      [0 2 -2 0 0 0 0];

internalField   nonuniform List<scalar> 
12225
(
0.537444
0.802307
0.97201
1.06042
1.0934
1.08952
1.07676
1.05039
1.02095
0.992184
0.965344
0.940366
0.918828
0.898146
0.882687
0.865278
0.856718
0.841311
0.378713
0.389098
0.402143
0.416879
0.430352
0.445845
0.46048
0.479458
0.497467
0.521177
0.537622
0.55982
0.574074
0.594832
0.606663
0.6258
0.634489
0.651788
0.374322
0.37343
0.372303
0.369303
0.36547
0.360033
0.355025
0.349744
0.345598
0.34212
0.339406
0.337283
0.335657
0.334619
0.333789
0.333541
0.332995
0.333478
0.373996
0.371888
0.370163
0.367352
0.364668
0.360685
0.357098
0.352555
0.348702
0.344201
0.340544
0.336357
0.332994
0.329145
0.326047
0.322584
0.319727
0.316651
0.373945
0.37164
0.369831
0.367416
0.365228
0.362311
0.359696
0.35651
0.353755
0.350554
0.347848
0.34473
0.342145
0.339172
0.33675
0.33391
0.331685
0.32896
0.373918
0.371595
0.369693
0.367523
0.365553
0.363207
0.361055
0.358613
0.356429
0.354031
0.351925
0.34962
0.347617
0.345401
0.343513
0.341373
0.339617
0.337536
0.373888
0.371587
0.369592
0.367531
0.365644
0.363606
0.361701
0.359669
0.357799
0.355846
0.354073
0.352223
0.350556
0.348795
0.347229
0.345538
0.344075
0.342433
0.373864
0.371583
0.369521
0.367495
0.365622
0.36373
0.361949
0.360142
0.358446
0.356742
0.355159
0.353568
0.352096
0.350601
0.34923
0.347811
0.346532
0.345167
0.373848
0.371578
0.369476
0.367454
0.365567
0.363731
0.361999
0.3603
0.358694
0.357122
0.355642
0.354191
0.352829
0.351485
0.350227
0.348969
0.347803
0.346611
0.373839
0.371572
0.369448
0.367422
0.365518
0.363695
0.361973
0.360316
0.358745
0.357232
0.3558
0.354417
0.353109
0.351842
0.350643
0.349473
0.348369
0.347279
0.373833
0.371567
0.36943
0.3674
0.365483
0.363658
0.361932
0.360284
0.358722
0.357228
0.355811
0.354454
0.353166
0.35193
0.350756
0.349626
0.34855
0.347511
0.37383
0.371562
0.369419
0.367385
0.36546
0.363631
0.361898
0.36025
0.358685
0.357193
0.355776
0.354424
0.353139
0.351911
0.350742
0.349624
0.348556
0.347533
0.373828
0.371559
0.36941
0.367373
0.365443
0.36361
0.361872
0.360219
0.35865
0.357156
0.355735
0.354382
0.353093
0.351865
0.350694
0.349578
0.34851
0.347492
0.373827
0.371556
0.369404
0.367363
0.365428
0.363592
0.361848
0.360192
0.358617
0.357119
0.355693
0.354336
0.353043
0.351811
0.350636
0.349516
0.348445
0.347425
0.373826
0.371553
0.369398
0.367355
0.365417
0.363577
0.361829
0.360168
0.358589
0.357087
0.355657
0.354295
0.352998
0.351761
0.350582
0.349458
0.348383
0.347359
0.373826
0.371551
0.369394
0.367348
0.365407
0.363564
0.361813
0.360149
0.358566
0.357061
0.355627
0.354261
0.35296
0.35172
0.350536
0.349408
0.34833
0.347303
0.373825
0.37155
0.369391
0.367344
0.3654
0.363555
0.361801
0.360134
0.358549
0.35704
0.355603
0.354234
0.35293
0.351687
0.350501
0.34937
0.34829
0.347259
0.373825
0.371549
0.36939
0.367341
0.365396
0.363549
0.361793
0.360124
0.358537
0.357026
0.355587
0.354216
0.352909
0.351664
0.350476
0.349342
0.348261
0.347228
0.373825
0.371549
0.36939
0.36734
0.365395
0.363547
0.36179
0.36012
0.358531
0.357019
0.355579
0.354206
0.352899
0.351652
0.350463
0.349328
0.348245
0.347212
0.373825
0.37155
0.369391
0.367342
0.365397
0.36355
0.361794
0.360124
0.358535
0.357023
0.355583
0.35421
0.352903
0.351656
0.350466
0.349332
0.348249
0.347216
0.373826
0.371551
0.369393
0.367346
0.365403
0.363556
0.361801
0.360133
0.358545
0.357034
0.355594
0.354223
0.352916
0.35167
0.350482
0.349348
0.348266
0.347233
0.373826
0.371554
0.369398
0.367353
0.365411
0.363567
0.361814
0.360148
0.358562
0.357052
0.355614
0.354244
0.352938
0.351692
0.350503
0.349369
0.348286
0.347251
0.373827
0.371558
0.369405
0.367364
0.365425
0.363584
0.361833
0.360168
0.358582
0.357073
0.355632
0.354258
0.352945
0.351692
0.350492
0.349347
0.348248
0.3472
0.373827
0.371565
0.369415
0.367382
0.365443
0.363601
0.361842
0.360169
0.358567
0.357039
0.35557
0.354164
0.35281
0.351513
0.350261
0.349062
0.347901
0.346794
0.373827
0.371579
0.369423
0.367401
0.365438
0.363569
0.361758
0.36003
0.358348
0.356734
0.355156
0.353636
0.352146
0.350713
0.349306
0.34796
0.346634
0.345374
0.373831
0.371579
0.36939
0.367374
0.36531
0.36334
0.361356
0.359458
0.357544
0.355693
0.353829
0.352023
0.350215
0.348474
0.346738
0.345081
0.343428
0.341869
0.373834
0.37151
0.369343
0.36735
0.365029
0.36283
0.360403
0.358093
0.355614
0.353232
0.350743
0.348353
0.345921
0.3436
0.341289
0.339101
0.336945
0.334918
0.373937
0.371774
0.370131
0.368382
0.365648
0.363091
0.359781
0.356785
0.353329
0.350258
0.347007
0.344138
0.341347
0.338867
0.336698
0.334658
0.333062
0.33143
0.37722
0.377753
0.381554
0.386833
0.391399
0.397142
0.401828
0.407963
0.413545
0.420669
0.427695
0.436101
0.444581
0.454099
0.463775
0.472473
0.48168
0.489673
0.462683
0.611259
0.727716
0.813524
0.87124
0.909434
0.930089
0.942066
0.942878
0.940876
0.936002
0.92798
0.918908
0.909219
0.899529
0.890022
0.880761
0.871871
2.76296e-05
0.000248388
0.000720408
0.00181285
0.00436371
0.00821488
0.0127246
0.0174147
0.0219941
0.0263503
0.0304064
0.0340399
0.0372397
0.040017
0.0423371
0.0443302
0.0457416
0.0472511
0.0473661
0.0473465
0.0476598
0.0473793
0.0472988
0.0455935
0.0448406
0.0447028
0.042571
0.0424993
0.0414641
0.0400486
0.0384575
0.0367165
0.034892
0.0329855
0.0311005
0.0292443
0.0274913
0.0258817
0.024459
0.0232344
0.0222578
0.0215054
0.0209969
0.0206806
0.0205144
0.0203881
0.0202912
0.0201249
0.0198028
0.0192764
0.0185711
0.0176645
0.0166121
0.0154288
0.0142047
0.0129639
0.0118022
0.0107805
0.00989526
0.00930609
0.00930314
0.00946674
0.00980319
0.0103416
0.0110583
0.0115697
0.0116886
0.0108257
0.0102455
0.00959931
0.00983612
0.0107843
0.0145466
0.0334685
0.0716506
0.115076
0.15862
0.205034
0.248247
0.287008
0.321087
0.350155
0.374507
0.395234
0.417138
0.438917
0.451788
0.460526
0.462366
0.471283
0.480777
0.488083
0.499901
0.505599
0.510969
0.518885
0.521514
0.523397
0.527973
0.535597
0.538827
0.539396
0.540851
0.539019
0.543861
0.538677
0.540309
0.541292
0.54581
0.543097
0.544923
0.546292
0.540583
0.537021
0.536372
0.533226
0.527178
0.523094
0.521033
0.518843
0.517763
0.516476
0.518205
0.513452
0.516101
0.510067
0.511391
0.501259
0.50064
0.499668
0.500656
0.500785
0.501864
0.504513
0.515025
0.508578
0.511022
0.514801
0.519847
0.533805
0.529822
0.535636
0.556282
0.554098
0.552095
0.558934
0.56968
0.578568
0.604951
0.603337
0.629731
0.626337
0.639553
0.646648
0.646586
0.655672
0.667489
0.690933
0.68225
0.712232
0.718088
0.732896
0.745734
0.750003
0.781804
0.784412
0.794296
0.799977
0.80548
0.809269
0.811292
0.812803
0.812335
0.798341
0.770016
0.751216
0.730006
0.703503
0.666567
0.605278
6.8822e-05
0.000254884
0.00173097
0.0074019
0.0197491
0.0354268
0.0518613
0.0673933
0.0811881
0.0930515
0.103082
0.111459
0.118392
0.124049
0.128588
0.132134
0.134813
0.136735
0.137941
0.138508
0.138701
0.138673
0.138098
0.136424
0.134433
0.131807
0.128582
0.124994
0.121058
0.116822
0.112384
0.107839
0.103307
0.0989425
0.0948895
0.0911749
0.0880565
0.0854388
0.0834471
0.0821175
0.0814489
0.0812968
0.081619
0.0820235
0.0823492
0.0823246
0.0820693
0.0811047
0.0791818
0.0765471
0.0733621
0.069716
0.065762
0.0616992
0.0576729
0.0539899
0.0507756
0.0483966
0.0469556
0.0477658
0.0489903
0.0512355
0.0548465
0.0587201
0.0620141
0.0631076
0.0610161
0.0575299
0.0567429
0.0628918
0.0773164
0.100873
0.137457
0.188097
0.231534
0.281384
0.333154
0.39018
0.451736
0.512419
0.573203
0.632715
0.687703
0.74003
0.78662
0.828672
0.864245
0.89526
0.921953
0.945318
0.965585
0.98275
0.997911
1.01041
1.02126
1.03052
1.04074
1.0508
1.05846
1.06586
1.07065
1.07422
1.07675
1.07813
1.07782
1.07888
1.08005
1.08197
1.07913
1.07631
1.07519
1.07412
1.06796
1.06202
1.05477
1.04776
1.03967
1.03205
1.02376
1.01572
1.00797
0.999171
0.992015
0.98349
0.975454
0.967547
0.958642
0.95001
0.939456
0.930518
0.92783
0.928612
0.920497
0.929665
0.929585
0.930008
0.926196
0.933223
0.963091
0.960439
0.969467
0.977396
0.985353
0.993374
1.0014
1.01225
1.02583
1.03968
1.05691
1.07314
1.09141
1.10863
1.12813
1.14738
1.1679
1.19061
1.216
1.24349
1.27329
1.30961
1.34789
1.39126
1.43904
1.49068
1.5472
1.60417
1.66205
1.7168
1.77276
1.82939
1.88525
1.92728
1.95244
1.94702
1.8999
1.8327
1.75458
1.66107
1.5646
1.45258
7.9325e-05
0.000741551
0.00554597
0.019891
0.0430142
0.0667249
0.0891168
0.108981
0.126159
0.14085
0.153344
0.163924
0.17284
0.180306
0.186507
0.191598
0.195719
0.19898
0.201482
0.203309
0.204567
0.205302
0.205631
0.205568
0.204834
0.203222
0.20122
0.198718
0.195765
0.192402
0.1887
0.184753
0.180685
0.176638
0.172748
0.169141
0.165958
0.163211
0.160971
0.159191
0.157775
0.156559
0.155336
0.153904
0.152093
0.149754
0.146785
0.143133
0.138795
0.133838
0.128399
0.122648
0.116805
0.111116
0.105871
0.101436
0.0981721
0.096573
0.0971056
0.0996279
0.104689
0.111682
0.120145
0.129426
0.138592
0.1466
0.154645
0.167591
0.190144
0.222901
0.261826
0.302213
0.342802
0.386673
0.449589
0.530708
0.618531
0.71261
0.811191
0.906583
0.997614
1.08179
1.15695
1.22396
1.28208
1.33267
1.37618
1.41381
1.44636
1.47453
1.49892
1.52
1.53827
1.55436
1.5687
1.5813
1.59294
1.60347
1.61226
1.61941
1.62487
1.62902
1.63113
1.63597
1.63701
1.63671
1.6364
1.63608
1.63467
1.63009
1.62507
1.61858
1.61079
1.6025
1.59325
1.58349
1.57343
1.56288
1.55196
1.54125
1.53033
1.51846
1.50712
1.49526
1.4834
1.47155
1.45943
1.44764
1.43563
1.42469
1.41487
1.40457
1.39615
1.39068
1.38298
1.37549
1.37519
1.37054
1.37875
1.3759
1.37829
1.38213
1.38182
1.40463
1.40552
1.41367
1.41972
1.42811
1.43959
1.4499
1.4618
1.47541
1.48957
1.50223
1.51698
1.53355
1.55306
1.57602
1.60352
1.63678
1.67512
1.71921
1.76876
1.82342
1.88308
1.94594
2.01094
2.07444
2.13765
2.20065
2.25129
2.27746
2.2743
2.2607
2.23094
2.18141
2.116
2.02894
1.94124
1.81163
0.000124265
0.00274435
0.0164749
0.0477129
0.0810736
0.110522
0.135389
0.15614
0.173511
0.188142
0.200529
0.211045
0.219985
0.227576
0.234003
0.23942
0.243954
0.247718
0.250811
0.253308
0.255277
0.256771
0.257842
0.258484
0.258729
0.258567
0.257759
0.256282
0.254465
0.25224
0.249669
0.246831
0.243824
0.240748
0.237705
0.23478
0.232041
0.229496
0.227116
0.224813
0.222461
0.219894
0.216946
0.213467
0.20935
0.204527
0.198988
0.192773
0.18598
0.178755
0.171297
0.163855
0.156728
0.15027
0.14491
0.141146
0.139474
0.140548
0.144931
0.152916
0.164415
0.178863
0.195827
0.214809
0.235813
0.259794
0.287768
0.318461
0.34909
0.376899
0.406547
0.448498
0.510257
0.594036
0.696948
0.81181
0.927461
1.04374
1.15626
1.26183
1.36013
1.45014
1.53162
1.60487
1.67004
1.7278
1.77872
1.82361
1.8631
1.8978
1.92821
1.95498
1.97846
1.99938
2.01792
2.03435
2.04918
2.06222
2.0736
2.08315
2.0914
2.09844
2.10416
2.10933
2.11257
2.11355
2.11383
2.11238
2.10947
2.10514
2.09963
2.09273
2.08525
2.07663
2.06719
2.05711
2.04647
2.03488
2.02288
2.01054
1.9972
1.98357
1.96934
1.95459
1.9394
1.92382
1.90785
1.89182
1.87571
1.86002
1.84488
1.83024
1.81703
1.80498
1.79314
1.78107
1.77174
1.76174
1.75369
1.74316
1.73451
1.7312
1.72936
1.73552
1.72909
1.73394
1.72881
1.72931
1.73438
1.73762
1.74145
1.74837
1.76321
1.76541
1.7699
1.77486
1.78153
1.79075
1.80366
1.82047
1.84192
1.86957
1.90391
1.9455
1.99292
2.0452
2.10121
2.15992
2.22097
2.27617
2.31232
2.3317
2.33725
2.33469
2.31993
2.29007
2.24731
2.183
2.11427
2.00896
0.000612624
0.00894126
0.0428105
0.0901768
0.128662
0.158906
0.183055
0.202752
0.21911
0.232862
0.244515
0.25444
0.262921
0.27018
0.276401
0.281736
0.286317
0.290253
0.293641
0.296552
0.299045
0.30116
0.302924
0.304346
0.305426
0.306122
0.306412
0.306312
0.305848
0.304847
0.303541
0.301982
0.300213
0.298287
0.296245
0.294106
0.291869
0.289488
0.286881
0.283923
0.28048
0.276412
0.271604
0.265971
0.259485
0.25217
0.244117
0.23547
0.226433
0.217259
0.208257
0.199784
0.192273
0.186236
0.182275
0.181154
0.183045
0.189373
0.200162
0.215518
0.235222
0.258728
0.28513
0.313581
0.34379
0.374391
0.402809
0.427106
0.450812
0.483384
0.536785
0.616222
0.719198
0.839626
0.965671
1.09212
1.2147
1.33351
1.44687
1.55419
1.65531
1.74986
1.83766
1.91846
1.99215
2.05882
2.11867
2.17227
2.22004
2.26251
2.30016
2.33364
2.36343
2.39002
2.41359
2.43472
2.45364
2.47021
2.48485
2.49777
2.50919
2.51909
2.52753
2.53478
2.54066
2.54408
2.54528
2.54355
2.54138
2.53788
2.53331
2.52773
2.52095
2.51297
2.504
2.49412
2.48335
2.47159
2.45896
2.44543
2.43081
2.41537
2.39895
2.38166
2.36356
2.34469
2.32518
2.30517
2.28477
2.26423
2.24368
2.22346
2.20384
2.18475
2.16602
2.1476
2.1309
2.1142
2.09889
2.0836
2.07009
2.05836
2.04831
2.04115
2.03164
2.0258
2.0175
2.00991
2.01165
2.00674
2.00263
1.99952
1.99596
1.98817
1.9796
1.96897
1.95682
1.94341
1.92901
1.9187
1.91378
1.9144
1.92389
1.93845
1.96264
1.99477
2.03427
2.08067
2.1264
2.16347
2.19409
2.22372
2.24989
2.2701
2.28188
2.28188
2.26334
2.22425
2.17502
2.10355
0.00299854
0.0246081
0.0849968
0.13714
0.174855
0.203582
0.226371
0.244974
0.260434
0.273428
0.28443
0.293794
0.3018
0.308676
0.314616
0.319783
0.32432
0.328345
0.331955
0.335222
0.3382
0.340924
0.343414
0.345669
0.34768
0.349424
0.35088
0.352031
0.352854
0.35335
0.353545
0.353456
0.353088
0.352436
0.351452
0.350063
0.348215
0.345809
0.342721
0.338816
0.333981
0.328125
0.321203
0.313219
0.304246
0.294419
0.283945
0.27309
0.262187
0.251613
0.241812
0.233291
0.226647
0.222553
0.221751
0.22466
0.232509
0.245592
0.263723
0.286224
0.312197
0.340606
0.370563
0.400975
0.429655
0.454743
0.477566
0.504727
0.54678
0.613552
0.707793
0.824411
0.952492
1.08335
1.21149
1.33603
1.45637
1.57332
1.68692
1.79683
1.90249
2.00324
2.09842
2.18751
2.27003
2.34586
2.41503
2.47777
2.53437
2.58523
2.63083
2.67166
2.70821
2.74095
2.77024
2.7965
2.81999
2.84087
2.85949
2.87607
2.8908
2.90371
2.91493
2.92452
2.93244
2.93844
2.94182
2.94266
2.94119
2.939
2.93588
2.93144
2.92558
2.91837
2.90987
2.90014
2.88919
2.87701
2.86363
2.84904
2.83317
2.8161
2.79773
2.77814
2.75747
2.73579
2.71319
2.68979
2.66566
2.64087
2.61534
2.5897
2.56412
2.53867
2.51339
2.48844
2.46437
2.4407
2.41797
2.39577
2.3747
2.35484
2.33637
2.31931
2.30239
2.2872
2.27213
2.2582
2.24779
2.23533
2.22182
2.20858
2.19241
2.17187
2.14769
2.11764
2.08129
2.03915
1.99493
1.94937
1.90279
1.86149
1.83792
1.81826
1.81622
1.82907
1.85509
1.88602
1.91564
1.94499
1.97901
2.01694
2.05802
2.09929
2.13698
2.1657
2.18101
2.17875
2.16004
2.12019
0.00828005
0.0529009
0.128884
0.179693
0.215782
0.243254
0.265116
0.282967
0.297769
0.310156
0.320588
0.329418
0.336943
0.343409
0.349034
0.354001
0.358468
0.362561
0.366381
0.370005
0.373487
0.376858
0.380131
0.3833
0.386352
0.389259
0.391997
0.394537
0.396854
0.398924
0.400728
0.402234
0.403397
0.404129
0.404232
0.403417
0.401738
0.399027
0.395114
0.389849
0.383207
0.375182
0.365827
0.355262
0.343689
0.331382
0.318691
0.306032
0.293878
0.282726
0.273163
0.265891
0.26176
0.260937
0.263931
0.27246
0.286108
0.304335
0.326373
0.351377
0.378659
0.407012
0.435317
0.461882
0.486741
0.513314
0.548399
0.602184
0.681687
0.786043
0.908286
1.03826
1.16817
1.29453
1.41727
1.5381
1.65722
1.77484
1.89077
2.0045
2.11531
2.22226
2.32454
2.42139
2.51224
2.59677
2.67484
2.74642
2.81168
2.87087
2.92438
2.97263
3.01608
3.05519
3.09035
3.12197
3.15035
3.17579
3.1986
3.21903
3.23724
3.25333
3.26742
3.27956
3.28973
3.29796
3.30402
3.30742
3.30839
3.30719
3.30518
3.3018
3.29684
3.29031
3.28224
3.27263
3.26146
3.24882
3.23471
3.21914
3.20208
3.18354
3.16331
3.14149
3.11834
3.09394
3.0684
3.0418
3.01424
2.98577
2.95632
2.92626
2.89573
2.86482
2.83363
2.80232
2.77114
2.74007
2.70946
2.67955
2.6504
2.62188
2.59411
2.56706
2.54032
2.5143
2.48851
2.46323
2.43883
2.41299
2.38564
2.35718
2.32527
2.28806
2.2448
2.19441
2.13546
2.06819
1.9913
1.90822
1.82319
1.74315
1.6799
1.63955
1.62161
1.62764
1.6465
1.66893
1.69396
1.72107
1.75277
1.79117
1.83722
1.88897
1.94328
1.99403
2.03577
2.06598
2.07593
2.07146
0.0153775
0.0878805
0.166507
0.216488
0.251891
0.278848
0.300245
0.317617
0.331897
0.34372
0.353566
0.361819
0.368807
0.37481
0.380072
0.384795
0.389152
0.39328
0.39729
0.40126
0.405243
0.409268
0.413342
0.417458
0.421595
0.425722
0.429806
0.433805
0.437677
0.441366
0.444808
0.447912
0.450563
0.452607
0.453752
0.453611
0.451671
0.448364
0.443331
0.436442
0.427717
0.417248
0.405209
0.391876
0.377633
0.362957
0.348412
0.334602
0.32213
0.31154
0.303518
0.299064
0.298047
0.299263
0.306186
0.318304
0.334514
0.354211
0.376852
0.401437
0.427164
0.453558
0.480342
0.508815
0.542701
0.588837
0.654674
0.743261
0.851869
0.973474
1.10045
1.22592
1.34891
1.47005
1.59006
1.70969
1.82917
1.94849
2.06723
2.18469
2.3
2.41226
2.52067
2.62436
2.72265
2.81504
2.90119
2.98095
3.05432
3.12145
3.1826
3.23811
3.28841
3.33392
3.37504
3.41217
3.44565
3.47581
3.50298
3.52739
3.54925
3.56867
3.58578
3.60063
3.61325
3.62368
3.63192
3.63794
3.6413
3.64216
3.64089
3.63852
3.63443
3.62855
3.62089
3.61141
3.59992
3.58668
3.57173
3.55508
3.53676
3.51676
3.49497
3.47142
3.44623
3.41948
3.39124
3.3616
3.33065
3.29851
3.26538
3.23111
3.1958
3.15952
3.12236
3.08445
3.04593
3.00683
2.96735
2.9276
2.88765
2.84751
2.80723
2.76685
2.7262
2.68531
2.64403
2.60236
2.56019
2.51627
2.47019
2.42178
2.36967
2.31242
2.24847
2.17699
2.09644
2.00601
1.90581
1.7987
1.69031
1.58992
1.51055
1.45819
1.44319
1.45005
1.46845
1.49002
1.51175
1.53492
1.56156
1.59485
1.63779
1.69035
1.75017
1.81195
1.86976
1.9202
1.95326
1.97859
0.0218658
0.118624
0.198889
0.249228
0.284684
0.311538
0.332685
0.349666
0.363436
0.374668
0.383881
0.3915
0.397888
0.403359
0.408186
0.412593
0.416769
0.420865
0.425
0.429254
0.43368
0.438304
0.44313
0.448143
0.453319
0.458618
0.463995
0.469392
0.474738
0.479943
0.484892
0.489437
0.493395
0.496536
0.498553
0.498813
0.496553
0.492539
0.48639
0.478041
0.467502
0.454926
0.44061
0.424993
0.408649
0.39225
0.376532
0.36223
0.349939
0.340261
0.333953
0.331627
0.331255
0.334186
0.343463
0.356938
0.37383
0.393465
0.415468
0.439615
0.466241
0.496465
0.531834
0.575809
0.633099
0.70802
0.800473
0.907546
1.02389
1.14405
1.26487
1.38428
1.50262
1.62073
1.73921
1.85846
1.97859
2.09938
2.22022
2.34039
2.45914
2.57564
2.68898
2.7983
2.90281
3.00189
3.09509
3.18212
3.26286
3.33733
3.40566
3.46813
3.5251
3.57693
3.62402
3.66673
3.70545
3.74051
3.77222
3.80083
3.82655
3.84951
3.86983
3.8876
3.90289
3.91575
3.92623
3.93443
3.94008
3.94282
3.94309
3.94174
3.9385
3.9333
3.92609
3.91688
3.9055
3.8921
3.87669
3.85929
3.83995
3.81866
3.79554
3.77054
3.74356
3.71461
3.68372
3.65094
3.61631
3.5799
3.54175
3.50186
3.46026
3.41705
3.37226
3.326
3.27832
3.22931
3.17905
3.12767
3.07524
3.02182
2.96745
2.91219
2.856
2.79887
2.74073
2.6815
2.62109
2.5588
2.49443
2.42754
2.35702
2.28198
2.20135
2.11411
2.01904
1.91508
1.8021
1.68296
1.56364
1.45349
1.36756
1.31528
1.30391
1.31186
1.32723
1.34454
1.36345
1.3845
1.40875
1.43757
1.47418
1.5227
1.58168
1.64681
1.71206
1.77442
1.82238
1.86669
0.0273012
0.142129
0.226143
0.278138
0.314416
0.34159
0.362695
0.379381
0.392681
0.403326
0.411883
0.418826
0.424561
0.429439
0.43376
0.437772
0.441682
0.445655
0.449817
0.454251
0.459009
0.464113
0.469563
0.475338
0.481404
0.487711
0.494198
0.500783
0.507367
0.513822
0.519988
0.52567
0.530637
0.534622
0.537327
0.537902
0.535456
0.530989
0.524309
0.51533
0.504103
0.490826
0.475856
0.459693
0.442962
0.426362
0.410624
0.396459
0.384587
0.375668
0.370328
0.368405
0.368446
0.372361
0.38291
0.396972
0.414514
0.435688
0.460859
0.490729
0.526479
0.569601
0.62241
0.687122
0.765338
0.856301
0.957183
1.06579
1.17886
1.29356
1.40838
1.52294
1.63778
1.75348
1.87047
1.98903
2.10911
2.23029
2.35203
2.47373
2.59468
2.71403
2.83093
2.94447
3.05384
3.15833
3.2574
3.35066
3.43787
3.51894
3.59391
3.66293
3.72628
3.78428
3.83727
3.88563
3.92969
3.9698
4.00626
4.0393
4.06914
4.0959
4.11967
4.14058
4.15875
4.17424
4.18713
4.19749
4.20532
4.21028
4.21261
4.21254
4.21047
4.20624
4.19976
4.19104
4.18017
4.167
4.15147
4.13358
4.11335
4.09076
4.06582
4.03851
4.00878
3.97663
3.94207
3.90514
3.86584
3.82423
3.78032
3.73413
3.68566
3.63497
3.58209
3.52708
3.46999
3.41087
3.34981
3.28689
3.2222
3.1558
3.08775
3.01816
2.94708
2.87454
2.80056
2.72516
2.64823
2.57022
2.48995
2.40757
2.32263
2.23458
2.14254
2.04542
1.94174
1.83011
1.70879
1.58139
1.45507
1.33774
1.24878
1.19833
1.18732
1.19226
1.20384
1.21869
1.23626
1.25649
1.2799
1.3074
1.34105
1.38472
1.44113
1.50628
1.57432
1.64291
1.69967
1.75846
0.0312596
0.161365
0.250404
0.304337
0.341541
0.369101
0.390247
0.406718
0.419611
0.429714
0.437648
0.443935
0.449026
0.453306
0.457099
0.460676
0.464266
0.468044
0.472142
0.476649
0.481616
0.487064
0.492989
0.499359
0.50613
0.513238
0.520606
0.528133
0.535693
0.54313
0.550256
0.556852
0.562671
0.567445
0.570908
0.572423
0.571581
0.567172
0.561246
0.553218
0.54342
0.532071
0.519481
0.506076
0.492397
0.479048
0.466664
0.455599
0.446355
0.439382
0.435031
0.43369
0.43418
0.439135
0.450794
0.466698
0.487415
0.513741
0.546406
0.586188
0.633963
0.690474
0.756553
0.832378
0.917594
1.01086
1.11046
1.21473
1.32184
1.43038
1.53968
1.64976
1.761
1.87383
1.98858
2.10539
2.2241
2.34431
2.4656
2.58741
2.70904
2.82973
2.94863
3.06488
3.17765
3.28618
3.38986
3.4882
3.58088
3.66773
3.74867
3.82377
3.89319
3.95714
4.01593
4.06993
4.11942
4.16473
4.20611
4.2438
4.27798
4.30882
4.33639
4.36084
4.38227
4.40076
4.41639
4.42922
4.4393
4.44665
4.45116
4.45306
4.45242
4.44937
4.44378
4.43559
4.4248
4.41132
4.39512
4.37617
4.35447
4.33002
4.30281
4.27283
4.24006
4.20448
4.1661
4.12493
4.08098
4.03428
3.98482
3.93261
3.87765
3.81994
3.75952
3.6964
3.63061
3.5622
3.49121
3.4177
3.34176
3.26347
3.18292
3.10027
3.01564
2.92916
2.84094
2.75107
2.66032
2.56801
2.47417
2.37897
2.28224
2.18359
2.08204
1.97607
1.86348
1.74269
1.60825
1.46724
1.33189
1.21775
1.13658
1.09214
1.08227
1.08526
1.09499
1.10876
1.12584
1.14594
1.16919
1.19636
1.22896
1.26983
1.32422
1.38873
1.45783
1.52961
1.592
1.65869
0.0341914
0.178214
0.271402
0.327245
0.365474
0.39355
0.414862
0.431241
0.443855
0.453547
0.460991
0.466753
0.471319
0.475101
0.478446
0.481648
0.484951
0.488541
0.49256
0.497103
0.502227
0.507957
0.514285
0.521177
0.528574
0.536398
0.544564
0.552965
0.561472
0.569926
0.578142
0.585912
0.593011
0.599199
0.60424
0.607852
0.609907
0.610475
0.609212
0.6046
0.600138
0.595232
0.589866
0.584177
0.578502
0.57324
0.568822
0.565464
0.563553
0.563236
0.563385
0.563892
0.566519
0.575537
0.58925
0.607781
0.63184
0.661974
0.698933
0.743751
0.796585
0.857269
0.925729
1.0015
1.08404
1.17257
1.26607
1.36342
1.46346
1.56532
1.66862
1.77342
1.88
1.98867
2.0997
2.21314
2.32881
2.44641
2.56555
2.68574
2.80634
2.92663
3.04584
3.16313
3.27771
3.38882
3.49577
3.59799
3.69503
3.78673
3.8729
3.9535
4.02858
4.09825
4.1628
4.22247
4.2775
4.32814
4.37462
4.41716
4.45593
4.4911
4.52283
4.5512
4.57626
4.59808
4.61674
4.63228
4.64476
4.6542
4.66057
4.66391
4.66445
4.6622
4.65711
4.64913
4.63822
4.62431
4.60735
4.58733
4.56423
4.53805
4.50877
4.47638
4.44087
4.40222
4.36042
4.31547
4.26738
4.21614
4.16175
4.10419
4.04345
3.97951
3.91237
3.84203
3.7685
3.69177
3.61187
3.52886
3.44279
3.35376
3.26191
3.16744
3.07056
2.97148
2.87045
2.76743
2.66416
2.559
2.45265
2.34537
2.23695
2.12685
2.0136
1.89467
1.76646
1.62929
1.48458
1.33823
1.20653
1.10288
1.03298
0.995119
0.986437
0.989004
0.998064
1.01149
1.02863
1.04895
1.07249
1.09987
1.13243
1.17272
1.2256
1.28969
1.35945
1.43321
1.49951
1.5711
0.0358759
0.191952
0.288719
0.346312
0.385554
0.414206
0.4358
0.452252
0.464791
0.47431
0.481521
0.487024
0.491327
0.494858
0.497984
0.501016
0.504212
0.507772
0.511847
0.516547
0.521943
0.528074
0.534946
0.542524
0.550738
0.559511
0.568758
0.57839
0.588312
0.598408
0.608546
0.618581
0.628369
0.637766
0.646649
0.654932
0.662611
0.669704
0.676086
0.682104
0.688174
0.694507
0.701084
0.707898
0.715025
0.722518
0.730357
0.738727
0.747632
0.756901
0.766562
0.776984
0.78931
0.804055
0.821758
0.843014
0.868532
0.899018
0.935213
0.977694
1.02644
1.08125
1.14191
1.20802
1.28019
1.35831
1.44176
1.52978
1.62089
1.71427
1.80954
1.90682
2.00642
2.10865
2.21365
2.32142
2.43179
2.54454
2.65934
2.77575
2.89323
3.01112
3.12867
3.24508
3.35969
3.47172
3.58043
3.68515
3.78537
3.88095
3.97156
4.05703
4.13732
4.21249
4.28266
4.34794
4.40848
4.46449
4.51613
4.5636
4.60704
4.64661
4.68241
4.71453
4.74302
4.76796
4.78939
4.80738
4.82197
4.83322
4.84114
4.8458
4.84729
4.8458
4.84126
4.8336
4.82274
4.8086
4.79114
4.77033
4.74615
4.7186
4.68764
4.65328
4.61548
4.57423
4.52952
4.48133
4.42965
4.37447
4.31578
4.25353
4.1877
4.11827
4.04519
3.96845
3.88801
3.80386
3.71599
3.62445
3.52925
3.4305
3.32837
3.22311
3.11501
3.00431
2.89099
2.77705
2.66084
2.54294
2.42369
2.30319
2.18079
2.05533
1.92429
1.7882
1.6461
1.4979
1.34904
1.20536
1.08575
0.99488
0.937338
0.906775
0.899315
0.902391
0.91148
0.925043
0.94254
0.963307
0.98738
1.0153
1.0483
1.08875
1.14101
1.20519
1.27571
1.35102
1.42041
1.4953
0.0365142
0.202419
0.301919
0.360898
0.401002
0.430222
0.452205
0.468931
0.481672
0.491352
0.498708
0.50435
0.508795
0.512476
0.515777
0.51902
0.522475
0.526357
0.530836
0.536044
0.542078
0.549002
0.556848
0.565601
0.575213
0.585605
0.596711
0.608503
0.620929
0.633965
0.647574
0.661731
0.676423
0.691603
0.707244
0.723389
0.740142
0.757571
0.775672
0.794589
0.814465
0.83529
0.857138
0.880007
0.903738
0.928096
0.952803
0.977595
1.00219
1.02631
1.04984
1.07287
1.09573
1.1188
1.14258
1.16769
1.1948
1.22456
1.25745
1.29352
1.33322
1.377
1.42503
1.47752
1.53543
1.59939
1.66902
1.74324
1.82076
1.90097
1.98362
2.06897
2.1574
2.24941
2.34504
2.44387
2.54572
2.6505
2.75794
2.86773
2.97941
3.09236
3.2058
3.31904
3.43158
3.5426
3.65133
3.75712
3.85948
3.95792
4.05203
4.14152
4.22622
4.30607
4.38108
4.45127
4.5167
4.5775
4.63381
4.68574
4.73345
4.77703
4.81659
4.8522
4.88391
4.91178
4.93585
4.95619
4.97284
4.98585
4.99526
5.00114
5.00357
5.00285
4.99907
4.99194
4.98133
4.96719
4.94947
4.92813
4.90316
4.87453
4.84223
4.80622
4.7665
4.72303
4.6758
4.6248
4.56998
4.51135
4.44885
4.38246
4.31212
4.23779
4.15942
4.07694
3.99031
3.89947
3.80441
3.70515
3.60163
3.49395
3.38229
3.2669
3.14776
3.02596
2.90266
2.77579
2.64637
2.51445
2.38005
2.24266
2.10052
1.95584
1.80813
1.65767
1.50526
1.35229
1.20691
1.07448
0.970966
0.896375
0.852412
0.826514
0.820307
0.824221
0.833648
0.847617
0.865573
0.886901
0.911567
0.940072
0.973596
1.01453
1.06705
1.13181
1.20322
1.27996
1.35197
1.42943
0.036269
0.209168
0.310357
0.370239
0.410996
0.44076
0.463247
0.480478
0.493746
0.503988
0.511944
0.518217
0.523313
0.52767
0.531676
0.535663
0.539914
0.544666
0.550119
0.556436
0.563756
0.572181
0.581772
0.592544
0.60448
0.617559
0.631782
0.647146
0.663708
0.681486
0.700536
0.720967
0.74284
0.766156
0.790979
0.817429
0.845603
0.875543
0.907394
0.941289
0.977265
1.01525
1.05512
1.09662
1.13944
1.18314
1.22726
1.27129
1.31472
1.35703
1.39783
1.4368
1.4738
1.5088
1.5419
1.57338
1.60366
1.63314
1.6623
1.69173
1.72221
1.75461
1.78981
1.82874
1.87141
1.91833
1.96934
2.02392
2.08226
2.14434
2.21032
2.28031
2.35446
2.43288
2.51499
2.60034
2.68888
2.78134
2.87735
2.97667
3.07895
3.18365
3.29014
3.39781
3.5059
3.61361
3.72013
3.82482
3.92704
4.02624
4.12189
4.21359
4.30106
4.38412
4.46264
4.53657
4.60587
4.67058
4.73076
4.7865
4.83789
4.88501
4.92793
4.96672
5.0014
5.03201
5.05859
5.08117
5.0998
5.1145
5.12531
5.13228
5.13549
5.13537
5.13247
5.12599
5.11575
5.1017
5.08381
5.06205
5.0364
5.00683
4.97333
4.93586
4.89442
4.84896
4.79947
4.74592
4.68828
4.6265
4.56056
4.4904
4.41597
4.3372
4.25399
4.16628
4.07397
3.97697
3.87526
3.76882
3.65746
3.54089
3.41955
3.29447
3.16563
3.03371
2.89733
2.75618
2.61128
2.46143
2.3061
2.14779
1.98681
1.82504
1.66304
1.5027
1.34637
1.19695
1.06349
0.949888
0.865425
0.804641
0.771831
0.752204
0.750123
0.754177
0.763868
0.778275
0.796651
0.818463
0.843635
0.872696
0.90673
0.948274
1.00158
1.06717
1.13946
1.21755
1.29176
1.37149
0.0373355
0.21245
0.314051
0.374166
0.415238
0.445446
0.468525
0.486498
0.500642
0.511893
0.52096
0.52841
0.534732
0.540363
0.545693
0.551066
0.556789
0.563133
0.570342
0.578632
0.588194
0.599177
0.611673
0.625725
0.641367
0.658661
0.67762
0.698347
0.720887
0.745261
0.771704
0.800375
0.83136
0.864789
0.900826
0.93961
0.981249
1.02582
1.07338
1.12395
1.17748
1.2338
1.2927
1.35384
1.41679
1.48104
1.546
1.61101
1.67538
1.73839
1.79934
1.85757
1.91252
1.96371
2.01079
2.05355
2.09201
2.1263
2.15681
2.18405
2.20886
2.23223
2.25531
2.27914
2.30452
2.33165
2.36116
2.39376
2.43024
2.4713
2.51734
2.56842
2.62445
2.6848
2.74898
2.81696
2.88862
2.9646
3.04445
3.12841
3.2167
3.3087
3.40381
3.50138
3.60068
3.7009
3.8013
3.90114
3.99979
4.09658
4.19088
4.28219
4.37008
4.45424
4.53443
4.61045
4.68217
4.74952
4.81249
4.87108
4.92533
4.97527
5.02095
5.06238
5.09958
5.13255
5.16129
5.18582
5.20615
5.22228
5.2342
5.24192
5.24551
5.24565
5.24348
5.23762
5.22763
5.21354
5.19535
5.17305
5.14661
5.11602
5.08125
5.04229
4.99911
4.95168
4.89996
4.84391
4.78349
4.71865
4.64937
4.57555
4.49716
4.4141
4.32611
4.23308
4.13496
4.03156
3.92287
3.80915
3.69035
3.5657
3.43563
3.30124
3.16026
3.01377
2.862
2.7016
2.53503
2.36354
2.18794
2.01054
1.83263
1.65766
1.48731
1.32534
1.17508
1.03984
0.926575
0.835663
0.768713
0.72369
0.698202
0.687231
0.686016
0.690406
0.70068
0.71558
0.734289
0.756401
0.781927
0.81141
0.84591
0.888098
0.942495
1.00894
1.082
1.16122
1.23718
1.31896
0.0394801
0.211455
0.312266
0.371955
0.412984
0.443501
0.467211
0.486112
0.501456
0.514157
0.524808
0.533909
0.541956
0.549387
0.556601
0.563971
0.571849
0.580559
0.590417
0.601713