/*--------------------------------*- C++ -*----------------------------------*\
| =========                 |                                                 |
| \\      /  F ield         | OpenFOAM: The Open Source CFD Toolbox           |
|  \\    /   O peration     | Version:  2112                                  |
|   \\  /    A nd           | Website:  www.openfoam.com                      |
|    \\/     M anipulation  |                                                 |
\*---------------------------------------------------------------------------*/
FoamFile
{
    version     2.0;
    format      ascii;
    arch        "LSB;label=32;scalar=64";
    class       volScalarField;
    location    "200";
    object      nut;
}
// * * * * * * * * * * * * * * * * * * * * * * * * * * * * * * * * * * * * * //

dimensions      [0 2 -1 0 0 0 0];

internalField   nonuniform List<scalar> 
12225
(
5.34609e-06
8.1073e-06
1.00033e-05
1.11307e-05
1.17029e-05
1.18804e-05
1.19502e-05
1.18524e-05
1.16988e-05
1.15319e-05
1.13678e-05
1.12073e-05
1.10711e-05
1.09295e-05
1.08366e-05
1.07052e-05
1.06671e-05
1.05457e-05
0.000133832
5.9109e-05
4.33917e-05
3.72557e-05
3.42989e-05
3.31309e-05
3.27258e-05
3.30954e-05
3.37332e-05
3.3711e-05
3.32684e-05
3.34185e-05
3.32776e-05
3.36745e-05
3.37049e-05
3.42825e-05
3.44711e-05
3.53116e-05
0.000612113
0.000304017
0.00020855
0.000159068
0.000132362
0.000113069
0.000101889
9.21016e-05
8.60619e-05
7.90415e-05
7.4643e-05
6.95623e-05
6.658e-05
6.29472e-05
6.10263e-05
5.83905e-05
5.72127e-05
5.53333e-05
0.000815266
0.000660234
0.000525624
0.000425069
0.000365755
0.000314206
0.000283913
0.000253653
0.000235763
0.00021463
0.000202107
0.000186714
0.000177976
0.000166507
0.000160379
0.000151688
0.00014738
0.00014012
0.000845435
0.000812273
0.000750821
0.000672632
0.000616538
0.000555754
0.000516224
0.000473203
0.000446345
0.000415194
0.000396037
0.000372366
0.000358391
0.000339874
0.000329603
0.000314774
0.000307249
0.000294084
0.00085177
0.000845235
0.000826221
0.000798485
0.000768615
0.000727662
0.000697235
0.000660355
0.000634878
0.000604802
0.000584882
0.000560494
0.000545046
0.000524858
0.00051288
0.000495761
0.000486567
0.000470653
0.000851527
0.000851065
0.000845424
0.000838021
0.000826718
0.000810663
0.000794728
0.000772794
0.000756132
0.000735358
0.000720542
0.00070211
0.000689598
0.000673265
0.000662854
0.00064814
0.000639623
0.000625247
0.000851435
0.000851013
0.000849691
0.000847633
0.000844016
0.000838896
0.000832768
0.000823602
0.000815325
0.000804425
0.000796026
0.000785307
0.000777489
0.000767272
0.000760194
0.000750441
0.000744126
0.000734041
0.000851518
0.000850741
0.000850028
0.000849012
0.000848031
0.000846117
0.00084414
0.00084079
0.000837391
0.000833259
0.000829093
0.000824259
0.000820082
0.0008151
0.000811055
0.000806046
0.00080205
0.000796539
0.00085156
0.000850668
0.000849963
0.000849104
0.000848476
0.000847509
0.00084666
0.000845332
0.000844019
0.000842304
0.000840705
0.000838655
0.000836884
0.000834675
0.000832806
0.000830518
0.000828529
0.000825809
0.000851562
0.000850666
0.000849916
0.000849097
0.000848438
0.000847675
0.000847037
0.000846247
0.000845549
0.000844669
0.000843918
0.000842956
0.000842159
0.000841129
0.000840304
0.000839195
0.000838374
0.000837119
0.000851554
0.000850671
0.000849892
0.000849092
0.000848398
0.000847672
0.000847044
0.000846365
0.000845776
0.000845116
0.000844552
0.000843904
0.000843358
0.000842714
0.000842182
0.000841529
0.000841005
0.000840333
0.000851547
0.000850675
0.000849876
0.000849089
0.000848372
0.00084766
0.000847014
0.000846366
0.000845779
0.000845182
0.000844644
0.000844092
0.000843595
0.000843079
0.000842615
0.000842129
0.000841689
0.000841225
0.000851542
0.000850676
0.000849865
0.000849084
0.000848353
0.000847647
0.000846986
0.000846346
0.000845747
0.000845165
0.00084462
0.00084409
0.000843591
0.000843106
0.000842649
0.000842204
0.000841782
0.000841371
0.000851539
0.000850675
0.000849858
0.000849078
0.000848339
0.000847634
0.000846965
0.000846325
0.000845718
0.000845137
0.000844584
0.000844054
0.00084355
0.000843066
0.000842605
0.000842163
0.00084174
0.000841335
0.000851538
0.000850674
0.000849853
0.000849072
0.00084833
0.000847622
0.000846949
0.000846307
0.000845695
0.000845111
0.000844554
0.000844021
0.000843512
0.000843026
0.00084256
0.000842115
0.000841689
0.000841281
0.000851537
0.000850673
0.000849851
0.000849068
0.000848323
0.000847614
0.000846939
0.000846294
0.00084568
0.000845093
0.000844533
0.000843998
0.000843486
0.000842997
0.000842529
0.000842081
0.000841652
0.000841241
0.000851539
0.000850677
0.000849857
0.000849075
0.000848331
0.000847622
0.000846947
0.000846302
0.000845686
0.000845099
0.000844537
0.000844
0.000843487
0.000842996
0.000842526
0.000842077
0.000841646
0.000841235
0.000851537
0.000850673
0.00084985
0.000849067
0.000848321
0.000847609
0.000846931
0.000846284
0.000845667
0.000845077
0.000844514
0.000843975
0.00084346
0.000842967
0.000842496
0.000842045
0.000841613
0.0008412
0.000851537
0.000850673
0.00084985
0.000849066
0.00084832
0.000847609
0.00084693
0.000846283
0.000845665
0.000845075
0.000844511
0.000843972
0.000843457
0.000842964
0.000842492
0.000842041
0.000841609
0.000841195
0.000851537
0.000850675
0.000849852
0.000849071
0.000848324
0.000847615
0.000846936
0.000846291
0.000845673
0.000845085
0.000844519
0.000843981
0.000843463
0.00084297
0.000842494
0.000842042
0.000841604
0.000841188
0.000851534
0.00085068
0.000849854
0.000849079
0.00084833
0.000847627
0.000846942
0.000846298
0.000845668
0.000845075
0.000844489
0.000843937
0.000843384
0.000842865
0.00084234
0.00084185
0.000841346
0.000840882
0.000851519
0.000850698
0.000849854
0.000849097
0.000848323
0.000847608
0.000846844
0.000846126
0.000845355
0.000844622
0.00084382
0.000843046
0.000842188
0.000841372
0.000840454
0.000839611
0.000838628
0.000837778
0.000851438
0.000850804
0.000849773
0.000849018
0.000847953
0.000846815
0.000845255
0.000843655
0.000841702
0.000839777
0.000837502
0.000835196
0.000832613
0.000829996
0.000827241
0.000824394
0.000821459
0.000818833
0.000851207
0.000851114
0.000847954
0.000846582
0.000842251
0.000837553
0.000831312
0.000824494
0.000816587
0.00080939
0.000800986
0.000793356
0.000784648
0.000777028
0.00076841
0.000761188
0.00075285
0.000746236
0.000850846
0.000846635
0.000828003
0.000818949
0.000799974
0.000779503
0.000755965
0.000735181
0.000712932
0.00069401
0.00067394
0.000657255
0.000639519
0.00062519
0.000609701
0.000597607
0.000584056
0.000573931
0.00083557
0.00078879
0.000741215
0.000686908
0.00062736
0.000579539
0.00053551
0.000501509
0.000469584
0.000445253
0.000421549
0.000403718
0.000385598
0.000372249
0.000358012
0.0003478
0.000336194
0.00032801
0.0007702
0.000550397
0.000435735
0.000339813
0.000284848
0.000249305
0.000221914
0.00020269
0.000186405
0.000174922
0.000164435
0.000157123
0.000149935
0.000145053
0.000139848
0.000136426
0.000132299
0.000129419
0.000572824
0.000131514
9.36054e-05
7.45165e-05
6.49593e-05
5.94382e-05
5.57806e-05
5.35835e-05
5.20724e-05
5.14094e-05
5.09864e-05
5.11173e-05
5.12848e-05
5.16999e-05
5.10467e-05
5.04697e-05
5.00837e-05
4.96957e-05
6.04845e-06
8.05943e-06
9.69148e-06
1.09535e-05
1.1859e-05
1.25093e-05
1.29231e-05
1.32171e-05
1.33519e-05
1.34415e-05
1.3484e-05
1.34743e-05
1.34424e-05
1.33944e-05
1.334e-05
1.32824e-05
1.32231e-05
1.31639e-05
2.4102e-09
9.86624e-08
2.85203e-07
7.13085e-07
1.69344e-06
3.12709e-06
4.74059e-06
6.35003e-06
7.85986e-06
9.24309e-06
1.04883e-05
1.15698e-05
1.24971e-05
1.32825e-05
1.39246e-05
1.44657e-05
1.48387e-05
1.52388e-05
1.52548e-05
1.52024e-05
1.53309e-05
1.5243e-05
1.52348e-05
1.47015e-05
1.44407e-05
1.44789e-05
1.37783e-05
1.37776e-05
1.34874e-05
1.3083e-05
1.26189e-05
1.21079e-05
1.15692e-05
1.10019e-05
1.0436e-05
9.87377e-06
9.33547e-06
8.83719e-06
8.39097e-06
8.00351e-06
7.69164e-06
7.44905e-06
7.2829e-06
7.17733e-06
7.11895e-06
7.07262e-06
7.03517e-06
6.97545e-06
6.86531e-06
6.68918e-06
6.45545e-06
6.1563e-06
5.80863e-06
5.41656e-06
5.00861e-06
4.59205e-06
4.1994e-06
3.85065e-06
3.547e-06
3.34219e-06
3.34092e-06
3.39373e-06
3.5028e-06
3.68126e-06
3.91588e-06
4.07786e-06
4.10236e-06
3.79369e-06
3.59714e-06
3.37138e-06
3.44856e-06
3.76358e-06
5.013e-06
1.0989e-05
2.09667e-05
2.9941e-05
3.41766e-05
3.74938e-05
3.99085e-05
4.17129e-05
4.31285e-05
4.42186e-05
4.50497e-05
4.57455e-05
4.68233e-05
4.80557e-05
4.84371e-05
4.85031e-05
4.79607e-05
4.82406e-05
4.86406e-05
4.88591e-05
4.956e-05
4.96739e-05
4.97774e-05
5.01433e-05
5.0012e-05
4.98239e-05
4.99017e-05
5.0278e-05
5.02483e-05
4.99792e-05
4.98055e-05
4.934e-05
4.94905e-05
4.87433e-05
4.86287e-05
4.84657e-05
4.86333e-05
4.81664e-05
4.81096e-05
4.8024e-05
4.73293e-05
4.68379e-05
4.66152e-05
4.61879e-05
4.55215e-05
4.50387e-05
4.47402e-05
4.4443e-05
4.42536e-05
4.40526e-05
4.41191e-05
4.36429e-05
4.38048e-05
4.32354e-05
4.32931e-05
4.23886e-05
4.22954e-05
4.21764e-05
4.22278e-05
4.22046e-05
4.22624e-05
4.24537e-05
4.33096e-05
4.27393e-05
4.29097e-05
4.31848e-05
4.35579e-05
4.46658e-05
4.42542e-05
4.46236e-05
4.61901e-05
4.58188e-05
4.54195e-05
4.57077e-05
4.62769e-05
4.66485e-05
4.83994e-05
4.79038e-05
4.96307e-05
4.9046e-05
4.98384e-05
5.02441e-05
5.02088e-05
5.10303e-05
5.22391e-05
5.45641e-05
5.45774e-05
5.79501e-05
5.96825e-05
6.25449e-05
6.57876e-05
6.90105e-05
7.59469e-05
8.17528e-05
8.82545e-05
8.84465e-05
8.87232e-05
8.88685e-05
8.88201e-05
8.89111e-05
8.96513e-05
8.89961e-05
8.64413e-05
8.52656e-05
8.35832e-05
8.22737e-05
7.87945e-05
7.56916e-05
6.00324e-09
1.18141e-07
1.51886e-06
8.11095e-06
2.30241e-05
4.31748e-05
6.60143e-05
8.92376e-05
0.00011074
0.000129369
0.000144686
0.000156566
0.000165708
0.000172169
0.000176319
0.000178538
0.000179282
0.000178767
0.000177324
0.000175013
0.000172423
0.000169604
0.000166291
0.000161925
0.000156467
0.00014968
0.00014192
0.000134043
0.000126373
0.000119073
0.000112231
0.000105969
0.000100233
9.58382e-05
9.20858e-05
8.84529e-05
8.6954e-05
8.49778e-05
8.42705e-05
8.45525e-05
8.57551e-05
8.76558e-05
9.00868e-05
9.24867e-05
9.45288e-05
9.58055e-05
9.6362e-05
9.56487e-05
9.35067e-05
9.02443e-05
8.6177e-05
8.15697e-05
7.66494e-05
7.20719e-05
6.73396e-05
6.40999e-05
6.07032e-05
5.93767e-05
5.8928e-05
6.16977e-05
6.41428e-05
6.51806e-05
6.75821e-05
6.96543e-05
6.71074e-05
6.05714e-05
5.10408e-05
4.11066e-05
3.36338e-05
3.11287e-05
3.29543e-05
3.69346e-05
4.38427e-05
5.55721e-05
6.7523e-05
7.95245e-05
9.37094e-05
0.000110561
0.000133011
0.000158544
0.000185164
0.00021434
0.000242044
0.000270562
0.000295844
0.000318981
0.000338975
0.000357042
0.000372396
0.00038608
0.000397445
0.000407371
0.000415469
0.000422345
0.000428338
0.000433843
0.000439492
0.000445249
0.000450352
0.000455324
0.000459701
0.000462473
0.000463611
0.000464119
0.000464281
0.000464957
0.000465289
0.00046601
0.000465613
0.000463848
0.00046507
0.000466405
0.000464376
0.000462295
0.000459337
0.000455661
0.000454982
0.000451928
0.000448161
0.00044441
0.000438691
0.000434872
0.000430827
0.000426879
0.000423704
0.000418818
0.000411691
0.000408558
0.000401716
0.000392227
0.000388418
0.000385705
0.000379545
0.000381034
0.000378394
0.000376736
0.000372877
0.000373895
0.0003833
0.000380015
0.000382804
0.000387956
0.000386589
0.000378776
0.000382417
0.000377848
0.000382394
0.000385335
0.000391499
0.000396861
0.000403687
0.000409318
0.000416933
0.000422374
0.000428542
0.000435763
0.000443084
0.000452123
0.000461102
0.000471242
0.00048157
0.000493957
0.000506824
0.000521199
0.000537916
0.00055408
0.000570848
0.000585089
0.000599336
0.000615755
0.000630641
0.000641854
0.00065736
0.000669469
0.000671138
0.00066014
0.000642212
0.000619461
0.000583048
0.000535262
6.91934e-09
3.0964e-07
3.92863e-06
1.74472e-05
4.61499e-05
8.36542e-05
0.000128579
0.000176181
0.000223005
0.000266535
0.000305169
0.000338255
0.000365457
0.000386801
0.000402503
0.000413118
0.000420413
0.000424023
0.000424635
0.0004228
0.000419059
0.000413736
0.000407318
0.000399976
0.000390777
0.000379435
0.000367069
0.000353845
0.000340255
0.000326722
0.000313605
0.000301256
0.000289933
0.000280257
0.000272145
0.000265452
0.000261013
0.000257405
0.000256106
0.000256273
0.000257678
0.00025986
0.000262213
0.000264131
0.000265048
0.000264485
0.000262076
0.000257662
0.000251275
0.000243087
0.000233431
0.000222753
0.000211755
0.000200876
0.00019053
0.00018177
0.000174265
0.000169298
0.000165981
0.000163593
0.000161266
0.000156305
0.000148802
0.000139981
0.000129038
0.000115243
0.000101343
9.05294e-05
8.76824e-05
9.22055e-05
0.000101569
0.000114584
0.000123906
0.000138979
0.000163367
0.000208206
0.000264556
0.000321233
0.00039136
0.000461523
0.000529941
0.000597805
0.000657114
0.000712518
0.000759183
0.000800367
0.000835286
0.000865707
0.000891627
0.000914052
0.000933144
0.000949341
0.000962824
0.000975216
0.000986205
0.000995823
0.00100538
0.00101423
0.00102233
0.00102887
0.0010352
0.00104095
0.00104484
0.00104653
0.00104256
0.00104509
0.00104042
0.00103991
0.0010375
0.00103383
0.00103265
0.00102773
0.00102109
0.00101413
0.00100623
0.000993957
0.000990765
0.000981958
0.000967245
0.000962454
0.000951573
0.000936581
0.00092309
0.000912113
0.000900165
0.00088788
0.00087601
0.000864978
0.000852945
0.000840294
0.000829327
0.000818513
0.000809236
0.000802458
0.000794964
0.000787438
0.000786946
0.000788406
0.000787707
0.000779892
0.00077597
0.00076395
0.000760247
0.000765765
0.0007655
0.00076425
0.000760859
0.000765076
0.000771457
0.000774315
0.000782512
0.000790546
0.00079907
0.000805636
0.0008146
0.000824057
0.000834486
0.000846091
0.000858804
0.000873225
0.000889898
0.000909019
0.000930103
0.000953657
0.000981543
0.00100034
0.00103169
0.00105769
0.00100768
0.000967073
0.000943364
0.000970351
0.00103657
0.00108893
0.00112377
0.0011519
0.00118436
0.0011979
0.00117437
0.00107549
1.08388e-08
9.05245e-07
9.39835e-06
3.88728e-05
8.55596e-05
0.000143569
0.000207886
0.000273602
0.000337003
0.000395622
0.000447867
0.000492763
0.000530397
0.000561042
0.000585116
0.000603216
0.000615926
0.000624196
0.00062901
0.000630229
0.00062843
0.00062409
0.000617644
0.00060925
0.000599124
0.000587447
0.000573919
0.00055883
0.00054326
0.000527418
0.000511767
0.000496768
0.000482834
0.000470404
0.000459708
0.000450844
0.000443938
0.000438738
0.000435071
0.000433017
0.000432004
0.000431169
0.000429933
0.000427689
0.000423907
0.000418175
0.000410216
0.00039992
0.00038736
0.000372747
0.000356417
0.000339015
0.000320914
0.00030282
0.000285314
0.000268992
0.000254005
0.000240941
0.000230495
0.000221419
0.000212665
0.000201776
0.00018909
0.000176637
0.000166712
0.000160144
0.000158042
0.000159677
0.000164268
0.000168182
0.000175142
0.0001932
0.000226225
0.000282277
0.000355085
0.000450352
0.000551486
0.000652829
0.000760259
0.000860765
0.00095484
0.0010421
0.0011186
0.00118746
0.00124678
0.0012988
0.00134345
0.00138259
0.00141661
0.00144678
0.00147362
0.00149767
0.00151257
0.00153175
0.00154569
0.00155375
0.00156812
0.0015745
0.00158667
0.00158886
0.0015957
0.00160422
0.00160619
0.00160706
0.00160002
0.00160045
0.00160011
0.0015956
0.00158769
0.00157212
0.00156309
0.00154969
0.00153828
0.00152583
0.00151239
0.00149771
0.00148471
0.00147009
0.00145419
0.00144035
0.00142403
0.00140575
0.00138834
0.00137057
0.00135199
0.0013335
0.00131483
0.00129634
0.00127736
0.00125862
0.0012409
0.00122433
0.00121002
0.00119901
0.00119338
0.00117044
0.00116545
0.00115308
0.00113766
0.00111211
0.00110561
0.00108418
0.00108049
0.00107679
0.00107084
0.00106319
0.00105441
0.00105262
0.00105508
0.00105109
0.00105457
0.00105893
0.00106898
0.00107247
0.00107848
0.00108497
0.00109287
0.0011018
0.00111142
0.00112061
0.00113313
0.0011482
0.00116607
0.00118756
0.00118436
0.00112505
0.00107116
0.0010265
0.000991061
0.000975628
0.000996922
0.00104278
0.00109388
0.00114755
0.00119914
0.00124893
0.0013005
0.00133488
0.00135812
0.00129225
5.34059e-08
2.48044e-06
2.33101e-05
7.59321e-05
0.000148185
0.000229473
0.000311608
0.000389653
0.00046126
0.000525352
0.000581351
0.000629099
0.000669086
0.000701917
0.000728203
0.000748606
0.000763716
0.000774165
0.000780993
0.000784505
0.000784669
0.000781975
0.00077672
0.00076916
0.000759595
0.000748213
0.000735269
0.000721134
0.000706217
0.000690482
0.000674816
0.000659656
0.000645368
0.000632289
0.000620633
0.000610477
0.000601796
0.000594383
0.000587997
0.00058224
0.000576715
0.000570821
0.000563861
0.000555289
0.0005447
0.000531833
0.000516505
0.000498655
0.000478483
0.00045621
0.000432317
0.000407581
0.000382535
0.000357872
0.000334334
0.000312724
0.000292444
0.000274548
0.000257748
0.000243477
0.000232785
0.000225009
0.000219731
0.000216095
0.000214593
0.000215421
0.000217711
0.000219467
0.000226799
0.000240004
0.000273396
0.000332888
0.000412715
0.000521354
0.000643079
0.00077554
0.000904857
0.00103197
0.00115594
0.00127031
0.00137562
0.00147166
0.00155775
0.00163539
0.00170408
0.00176574
0.00181599
0.00186065
0.00189832
0.00193279
0.00196209
0.00198798
0.00200868
0.00202844
0.00204439
0.00205746
0.00207082
0.0020803
0.00208968
0.00209476
0.00210009
0.0021045
0.00210655
0.00210708
0.00210499
0.00210344
0.00209919
0.002091
0.00208363
0.00206441
0.00205048
0.00203561
0.00202068
0.00200433
0.00198722
0.00196948
0.00195151
0.00193262
0.00191303
0.0018932
0.00187186
0.00184919
0.00182613
0.00180217
0.00177736
0.0017521
0.00172625
0.00170002
0.00167324
0.00164642
0.00161984
0.0015938
0.0015686
0.00154425
0.00152039
0.00149279
0.00147016
0.00144592
0.00142079
0.00139533
0.00137427
0.00135134
0.00133397
0.00131758
0.00130072
0.0012854
0.00127238
0.00126447
0.00125335
0.00124352
0.00121336
0.00118605
0.001161
0.00113716
0.00111724
0.00110099
0.00108887
0.00108066
0.00107553
0.00107417
0.001074
0.00107071
0.00105996
0.00103678
0.00100266
0.000962561
0.00092436
0.00089427
0.000880566
0.000893947
0.000928305
0.000973893
0.00102934
0.00109117
0.00115558
0.00122028
0.00128143
0.00132844
0.00136438
0.00134043
2.60694e-07
6.69167e-06
5.03163e-05
0.000131639
0.000228589
0.000327354
0.00042054
0.000505179
0.000579974
0.000644656
0.000699773
0.000746021
0.00078439
0.000815852
0.000841191
0.000860927
0.000875648
0.000886058
0.000893227
0.000897035
0.000897753
0.000895714
0.000891199
0.000884496
0.000875856
0.000865516
0.000853732
0.000840794
0.000826981
0.000812655
0.000798212
0.00078402
0.000770371
0.00075749
0.000745435
0.000734145
0.00072353
0.00071335
0.000703267
0.000693067
0.000682172
0.000670149
0.000656496
0.000640464
0.000621949
0.000601144
0.000577883
0.000552107
0.000524222
0.000494651
0.000463939
0.000432666
0.000401699
0.000371989
0.000344485
0.000319629
0.000299144
0.00028361
0.000273135
0.000267028
0.000263554
0.000261839
0.00026167
0.000262962
0.000265035
0.000266432
0.000269011
0.000283124
0.000310785
0.000364031
0.000443138
0.000550857
0.000680066
0.00082702
0.000974963
0.00112274
0.00126437
0.00140008
0.00152831
0.00164698
0.00175633
0.00185519
0.00194609
0.00203107
0.00210386
0.00216877
0.00222544
0.00227595
0.00231934
0.00235786
0.00239125
0.00242038
0.00244541
0.00246757
0.00248645
0.00250278
0.00251717
0.0025286
0.00253814
0.00254505
0.00255078
0.00255478
0.00255685
0.0025571
0.00255536
0.00255248
0.00254641
0.00253712
0.00252507
0.00250944
0.00249468
0.00247891
0.00246217
0.00244409
0.00242497
0.00240499
0.00238417
0.00236233
0.00233958
0.00231577
0.00229055
0.00226397
0.00223626
0.00220731
0.00217725
0.00214622
0.00211421
0.00208132
0.00204756
0.00201308
0.00197786
0.00194242
0.00190692
0.00187138
0.00183532
0.00179842
0.00176297
0.00172714
0.00169113
0.0016557
0.00162158
0.00157315
0.00152299
0.00147388
0.0014254
0.00137816
0.00133155
0.00128627
0.00124341
0.00119995
0.00115709
0.00111579
0.00107562
0.00103688
0.00100131
0.000969247
0.000941693
0.00091963
0.000904822
0.000896481
0.000892023
0.000888984
0.000883168
0.000863842
0.00083997
0.000811589
0.000784068
0.00076817
0.000773009
0.00079519
0.000830581
0.000878298
0.000937726
0.0010062
0.0010804
0.00115679
0.00123171
0.00129455
0.00134378
0.0013485
7.1561e-07
1.58301e-05
8.85819e-05
0.00019601
0.000311252
0.000421398
0.000521098
0.000608385
0.000683224
0.000746395
0.000799212
0.000843013
0.000878655
0.00090721
0.000929489
0.000946529
0.000959103
0.000967947
0.000973626
0.000976421
0.000976682
0.000974688
0.000970644
0.000964732
0.000957129
0.000948022
0.000937623
0.000926169
0.000913919
0.000901159
0.000888174
0.000875219
0.000862487
0.000850041
0.000837649
0.00082485
0.000811812
0.000798184
0.000783591
0.000767593
0.000749939
0.000730294
0.000708305
0.000683751
0.000656621
0.000627056
0.000595253
0.000561604
0.000526656
0.000491111
0.000455877
0.000422112
0.000391229
0.000363634
0.000340266
0.000323346
0.000312067
0.000305414
0.000301803
0.000300344
0.000300656
0.000302416
0.000304992
0.000307302
0.00031101
0.000324344
0.000347493
0.000388276
0.000459406
0.000556405
0.000680579
0.000827072
0.000984906
0.00114423
0.00129924
0.0014496
0.00159264
0.00172755
0.00185244
0.00196783
0.00207802
0.00218155
0.00227719
0.00236187
0.00243795
0.00250636
0.00256747
0.002622
0.00267006
0.00271256
0.00274986
0.00278252
0.00281103
0.00283598
0.00285759
0.00287634
0.00289244
0.00290574
0.00291664
0.00292519
0.00293194
0.00293683
0.00293981
0.00294085
0.00293984
0.00293697
0.00293144
0.00292297
0.00291157
0.00289727
0.0028827
0.00286701
0.00285002
0.00283161
0.00281191
0.00279104
0.00276897
0.0027457
0.00272122
0.00269537
0.00266799
0.00263907
0.00260848
0.00257628
0.00254267
0.00250762
0.00247121
0.00243361
0.00239487
0.00235506
0.00231405
0.00227044
0.00221038
0.00214985
0.00208885
0.00202731
0.00196567
0.00190375
0.00184226
0.00178099
0.0017205
0.00166068
0.00160192
0.00154405
0.00148741
0.00143253
0.00137914
0.00132766
0.00127826
0.00122956
0.00118144
0.00113427
0.0010876
0.00104154
0.000997036
0.000955094
0.00091653
0.00088274
0.000853979
0.000831432
0.000814546
0.000800995
0.000789959
0.000772132
0.000742291
0.000710703
0.000689014
0.000683956
0.000694249
0.000716798
0.000751279
0.000798242
0.000857863
0.000928617
0.0010083
0.00109312
0.00117864
0.00125659
0.00132258
0.00135538
1.31866e-06
3.0422e-05
0.000128503
0.00025552
0.000383909
0.000502377
0.000606541
0.000695257
0.000769627
0.000831103
0.000881006
0.000920646
0.000951784
0.000975882
0.000994175
0.00100785
0.0010177
0.00102419
0.00102789
0.00102922
0.00102849
0.00102592
0.00102169
0.00101595
0.00100884
0.0010005
0.000991089
0.000980778
0.00096975
0.000958191
0.000946266
0.000934091
0.000921714
0.000909075
0.000895803
0.000881311
0.000864744
0.000847012
0.000827389
0.000805427
0.000775688
0.000742082
0.000707933
0.00067335
0.000638723
0.000604691
0.000571978
0.000541237
0.000507027
0.000471693
0.000439223
0.000411213
0.000387457
0.000366356
0.000351997
0.000342937
0.000337502
0.000334853
0.000334518
0.000336031
0.000338356
0.000341434
0.000346299
0.000359353
0.000380657
0.000415047
0.000474134
0.00055723
0.000667766
0.000800232
0.000953245
0.00111514
0.00127756
0.00143641
0.00158851
0.00173277
0.00186971
0.00200041
0.00212379
0.00224353
0.00235381
0.0024566
0.00255091
0.00263718
0.00271576
0.00278713
0.00285162
0.00290964
0.00296146
0.0030076
0.00304846
0.00308451
0.00311622
0.00314403
0.00316828
0.00318937
0.0032075
0.00322278
0.00323543
0.00324565
0.00325371
0.00325968
0.00326364
0.00326554
0.00326533
0.00326297
0.00325819
0.00325106
0.00324107
0.00322848
0.00321411
0.00319881
0.00318204
0.00316372
0.00314391
0.00312266
0.00309979
0.00307551
0.00304986
0.00302272
0.00299401
0.00296371
0.00293172
0.00289806
0.00285642
0.00280051
0.00274351
0.00268546
0.00262649
0.00256659
0.00250584
0.00244443
0.00238242
0.0023198
0.00225651
0.00219264
0.00212855
0.00206455
0.00200103
0.00193828
0.0018763
0.00181488
0.00175415
0.00169414
0.00163505
0.00157732
0.00152107
0.0014664
0.00141315
0.00136085
0.00130935
0.00125869
0.00120839
0.00115828
0.00110846
0.00105943
0.00101147
0.00096551
0.000922699
0.00088449
0.000850161
0.000816142
0.000777957
0.000731335
0.000684691
0.00064918
0.000632573
0.000631744
0.000643387
0.000666132
0.000699654
0.000744804
0.000802782
0.000873338
0.000955102
0.00104471
0.00113779
0.00122733
0.00130981
0.00136763
1.86176e-06
4.71005e-05
0.0001679
0.000311607
0.00045024
0.000573802
0.000679883
0.000768831
0.000841424
0.000899174
0.000944389
0.000979191
0.00100551
0.00102497
0.0010393
0.00104978
0.00105652
0.00106037
0.00106191
0.00106152
0.0010595
0.00105605
0.0010513
0.00104539
0.00103839
0.00103041
0.00102156
0.00101196
0.0010017
0.000990897
0.000979604
0.000967827
0.000955488
0.000942408
0.000928225
0.000911947
0.000892333
0.000870846
0.000846723
0.000809177
0.000771054
0.000733483
0.000696436
0.000660179
0.000625254
0.0005925
0.000563084
0.00053149
0.000497538
0.000466924
0.000440647
0.000419354
0.000400186
0.000384575
0.000375676
0.000370708
0.000368759
0.000368778
0.000370429
0.000373318
0.000379632
0.000393904
0.000414578
0.000449684
0.000495847
0.00056667
0.000660007
0.000774314
0.000908852
0.00105837
0.00121793
0.00137851
0.00153384
0.00168427
0.00182894
0.00196709
0.00209954
0.00222877
0.00235407
0.00247052
0.00257955
0.00268143
0.002776
0.00286341
0.00294383
0.0030175
0.00308466
0.00314558
0.00320051
0.00324982
0.00329387
0.00333303
0.00336769
0.00339825
0.00342509
0.00344855
0.00346887
0.00348623
0.00350083
0.00351284
0.00352245
0.00352974
0.00353491
0.00353792
0.00353876
0.00353737
0.00353367
0.00352776
0.00351937
0.00350827
0.00349505
0.00348048
0.00346437
0.00344663
0.00342732
0.00340645
0.00338392
0.00335987
0.00332427
0.00327862
0.00323129
0.00318244
0.00313218
0.00308073
0.00302829
0.002975
0.00292091
0.00286612
0.00281079
0.00275481
0.0026986
0.0026416
0.00258387
0.0025252
0.0024655
0.00240482
0.00234341
0.00228152
0.00221929
0.00215673
0.00209396
0.0020311
0.00196838
0.00190596
0.00184401
0.00178287
0.00172292
0.00166439
0.00160747
0.00155203
0.00149807
0.00144535
0.00139308
0.00134055
0.0012869
0.00123123
0.00117277
0.00111166
0.00104862
0.000985113
0.000920239
0.000849867
0.000768535
0.000690624
0.000637314
0.000606097
0.000593171
0.000594686
0.000608563
0.000633314
0.000668203
0.000713249
0.000769792
0.0008399
0.00092292
0.0010162
0.00111547
0.00121509
0.00131109
0.00138832
2.31161e-06
5.80869e-05
0.000193189
0.000350892
0.000500482
0.000631065
0.000740113
0.000828185
0.000897685
0.000951339
0.000991884
0.00102183
0.0010433
0.0010584
0.00106932
0.0010765
0.00108021
0.00108143
0.00108076
0.00107857
0.00107514
0.00107065
0.00106522
0.00105893
0.00105184
0.00104402
0.00103552
0.0010264
0.0010167
0.00100645
0.000995615
0.000984123
0.000971818
0.000958467
0.000943756
0.000926377
0.000904983
0.000881385
0.000855277
0.000826567
0.000795308
0.000761705
0.000726184
0.000689378
0.000652103
0.000615282
0.000579851
0.00054666
0.000516445
0.00048988
0.000467728
0.000449493
0.000433178
0.000420905
0.000415582
0.000413104
0.000412925
0.00041598
0.000423516
0.000437851
0.000463079
0.000492926
0.000538524
0.000595081
0.000670218
0.000765959
0.00087783
0.00100544
0.00114695
0.0012962
0.00144872
0.00159982
0.00174691
0.00188956
0.00202687
0.00215976
0.00229035
0.00241822
0.00253889
0.002653
0.00276059
0.0028617
0.00295631
0.00304445
0.00312618
0.0032016
0.00327087
0.00333416
0.00339167
0.00344371
0.00349055
0.00353251
0.00356989
0.00360297
0.0036323
0.00365811
0.00368068
0.00370019
0.00371684
0.00373079
0.00374217
0.00375107
0.0037577
0.00376205
0.00376416
0.00376403
0.00376164
0.00375704
0.00375025
0.00374102
0.00372965
0.0037159
0.00368606
0.00365423
0.00362048
0.00358487
0.00354736
0.00350837
0.0034682
0.00342684
0.00338451
0.00334119
0.0032973
0.00325275
0.00320738
0.00316118
0.00311404
0.00306587
0.00301666
0.00296624
0.00291456
0.00286158
0.00280736
0.00275173
0.00269459
0.00263597
0.00257603
0.00251491
0.00245267
0.00238934
0.00232504
0.00226004
0.00219465
0.00212915
0.00206377
0.00199891
0.00193501
0.00187238
0.00181118
0.00175168
0.00169288
0.00163435
0.00157464
0.0015117
0.00144344
0.00136842
0.0012862
0.00119796
0.00110532
0.0010111
0.000916039
0.000817097
0.000722678
0.000645245
0.000595908
0.000568722
0.000559507
0.000564686
0.000581935
0.000609716
0.000647242
0.00069442
0.000752109
0.000822537
0.000907577
0.00100489
0.00111034
0.0012192
0.00132692
0.00142257
2.63551e-06
6.65367e-05
0.00021628
0.000386286
0.000544359
0.000678775
0.000788225
0.000874543
0.000940788
0.000990321
0.00102636
0.00105166
0.00106881
0.00108051
0.00108834
0.00109201
0.00109281
0.00109155
0.00108876
0.00108482
0.00107998
0.00107441
0.00106822
0.00106149
0.00105426
0.00104656
0.00103839
0.00102976
0.00102063
0.00101099
0.00100074
0.000989751
0.00097785
0.000964808
0.000950371
0.000933655
0.000914159
0.000890123
0.000864917
0.000837665
0.000808882
0.000778839
0.000747955
0.000716728
0.000685736
0.000655622
0.000627039
0.00060052
0.000576307
0.000554775
0.00053617
0.000520583
0.000506336
0.000496564
0.000493764
0.000495216
0.000501491
0.000514094
0.000534214
0.000563135
0.000603262
0.000648796
0.000710945
0.000785026
0.000873981
0.00097701
0.00109277
0.0012203
0.00135708
0.00149871
0.0016416
0.00178295
0.00192122
0.00205552
0.00218612
0.00231486
0.00244166
0.00256377
0.00268082
0.00279241
0.00289835
0.00299855
0.00309294
0.00318147
0.00326412
0.00334091
0.00341189
0.00347715
0.00353684
0.00359124
0.00364058
0.0036851
0.00372506
0.0037607
0.00379253
0.00382074
0.00384562
0.00386735
0.00388614
0.00390213
0.00391548
0.0039263
0.00393467
0.00394015
0.00393383
0.00392481
0.00391293
0.00389812
0.00388051
0.00386021
0.00383745
0.00381311
0.00378746
0.0037606
0.00373249
0.00370295
0.0036725
0.00364074
0.00360798
0.00357407
0.00353897
0.00350259
0.00346494
0.00342598
0.00338581
0.00334445
0.00330181
0.00325777
0.00321223
0.00316506
0.0031162
0.00306563
0.00301338
0.00295934
0.00290344
0.00284572
0.00278629
0.00272527
0.00266268
0.00259856
0.00253299
0.00246622
0.00239858
0.00233042
0.002262
0.00219368
0.00212578
0.00205845
0.00199186
0.00192491
0.0018566
0.00178546
0.00170932
0.001626
0.00153399
0.00143351
0.00132673
0.00121724
0.00110522
0.000994106
0.00088497
0.00077649
0.000676326
0.000599864
0.000556041
0.000534923
0.000531317
0.000541282
0.000562589
0.000593873
0.000634521
0.000684543
0.000744733
0.000816988
0.000905089
0.0010071
0.00111907
0.00123686
0.00135568
0.00146663