/*--------------------------------*- C++ -*----------------------------------*\
| =========                 |                                                 |
| \\      /  F ield         | OpenFOAM: The Open Source CFD Toolbox           |
|  \\    /   O peration     | Version:  2112                                  |
|   \\  /    A nd           | Website:  www.openfoam.com                      |
|    \\/     M anipulation  |                                                 |
\*---------------------------------------------------------------------------*/
FoamFile
{
    version     2.0;
    format      ascii;
    arch        "LSB;label=32;scalar=64";
    class       volScalarField;
    location    "200";
    object      omega;
}
// * * * * * * * * * * * * * * * * * * * * * * * * * * * * * * * * * * * * * //

dimensions      [0 0 -1 0 0 0 0];

internalField   nonuniform List<scalar> 
12225
(
37545.8
40208
41823.9
42640.6
42941.2
42911.2
42782.8
42551
42278.1
42011.2
41761
41526.9
41324
41128.3
40981.4
40815.3
40733.4
40585.1
2829.76
6582.72
9267.74
11189.7
12547.1
13457.1
14070.8
14487.1
14747.1
14973.9
15168.3
15405.3
15595.8
15821.9
15971.5
16157.2
16225.6
16307.6
611.524
1228.32
1785.19
2321.67
2761.15
3184.2
3484.42
3797.37
4015.69
4328.37
4547.06
4848.65
5041.41
5315.87
5469.6
5712.24
5820.3
6026.72
458.741
563.266
704.236
864.219
997.027
1147.92
1257.78
1389.91
1479.03
1603.69
1684.97
1801.46
1871
1976.76
2032.98
2126.62
2169.41
2259.86
442.311
457.53
492.569
546.236
592.384
651.926
696.784
753.398
792.56
844.312
878.321
925.783
954.671
997.933
1021.69
1060.79
1079.53
1118.59
438.989
439.635
447.45
460.275
475.6
499.142
517.838
543.061
561.414
585.367
601.704
623.772
637.776
658.084
669.773
688.584
697.985
717.164
439.079
436.615
437.168
438.57
442.284
448.53
455.125
465.414
473.196
483.908
491.397
501.664
508.349
518.065
523.84
533.123
537.934
547.676
439.099
436.636
434.888
433.555
433.193
433.582
434.634
437.276
439.636
443.475
446.166
450.229
452.864
456.945
459.395
463.475
465.69
470.228
439.037
436.77
434.663
432.801
431.078
429.883
428.837
428.526
428.347
428.584
428.953
429.708
430.237
431.216
431.816
432.94
433.643
435.147
439.005
436.801
434.663
432.717
430.794
429.134
427.531
426.242
425.044
424.113
423.216
422.601
421.933
421.531
421.039
420.789
420.467
420.532
438.997
436.795
434.667
432.695
430.771
429.006
427.292
425.744
424.247
422.921
421.617
420.489
419.358
418.402
417.416
416.621
415.745
415.127
438.998
436.787
434.666
432.679
430.765
428.976
427.249
425.643
424.089
422.656
421.26
419.982
418.73
417.593
416.468
415.463
414.451
413.567
438.999
436.781
434.664
432.668
430.758
428.958
427.232
425.607
424.046
422.578
421.165
419.838
418.558
417.358
416.197
415.112
414.06
413.078
439
436.777
434.661
432.658
430.75
428.943
427.219
425.585
424.024
422.543
421.128
419.785
418.5
417.28
416.112
415.002
413.938
412.927
439.001
436.774
434.659
432.652
430.743
428.931
427.207
425.567
424.006
422.52
421.103
419.754
418.467
417.241
416.069
414.952
413.885
412.867
439.001
436.773
434.656
432.647
430.737
428.922
427.196
425.554
423.99
422.501
421.082
419.73
418.44
417.211
416.037
414.917
413.847
412.826
439.001
436.772
434.654
432.644
430.732
428.915
427.187
425.543
423.977
422.486
421.064
419.71
418.418
417.186
416.01
414.888
413.816
412.794
439
436.769
434.65
432.636
430.723
428.904
427.174
425.527
423.959
422.466
421.043
419.687
418.393
417.159
415.982
414.858
413.785
412.76
439
436.771
434.652
432.64
430.727
428.908
427.178
425.531
423.963
422.469
421.045
419.688
418.394
417.159
415.981
414.857
413.783
412.758
439.001
436.772
434.654
432.643
430.731
428.912
427.182
425.536
423.968
422.474
421.051
419.694
418.4
417.166
415.988
414.863
413.79
412.765
439.001
436.772
434.656
432.645
430.735
428.917
427.188
425.542
423.976
422.483
421.061
419.705
418.413
417.18
416.005
414.882
413.812
412.788
439.003
436.772
434.66
432.648
430.742
428.924
427.201
425.556
423.998
422.51
421.1
419.752
418.478
417.258
416.107
415.002
413.962
412.961
439.012
436.768
434.668
432.653
430.761
428.953
427.272
425.667
424.179
422.76
421.455
420.212
419.081
417.998
417.027
416.081
415.26
414.429
439.054
436.723
434.722
432.714
430.97
429.375
428.087
426.915
426.003
425.159
424.56
424.049
423.739
423.512
423.409
423.417
423.516
423.521
439.173
436.579
435.664
433.981
433.882
434.085
435.165
436.668
438.836
440.745
443.399
445.747
448.795
451.351
454.583
457.127
460.43
462.822
439.364
438.89
446.121
448.591
456.652
466.118
478.006
488.938
501.511
512.518
525.015
535.596
547.623
557.388
568.701
577.438
588.006
595.662
447.401
470.987
498.294
534.789
581.848
626.067
673.009
714.031
757.294
793.329
832.032
862.861
897.102
923.038
953.292
974.987
1002.23
1021.06
485.507
675.465
849.442
1084.07
1283.66
1456.41
1621.26
1760.25
1895.49
2002.37
2110.3
2190.24
2276.64
2336.16
2407.59
2453.03
2517.49
2560.9
498.232
2872.34
4076.2
5191.24
6025.3
6681.58
7203.71
7613.59
7941.74
8182.73
8388.42
8531.39
8668.87
8760.25
8874.33
8946.45
9059.61
9124.88
23075.3
24526.9
25586.8
26333.6
26823.1
27141.8
27312.4
27410.5
27417.8
27401
27360.7
27294.6
27219.9
27139.8
27059.5
26980.5
26903.4
26829.1
11463.6
2517.55
2525.94
2542.26
2576.82
2627.01
2684.18
2742.46
2798.28
2850.81
2899.08
2942.13
2979.88
3012.76
3040.46
3064.49
3082.6
3100.71
3105
3114.42
3108.75
3108.26
3104.65
3101.29
3105.15
3087.45
3089.7
3084.68
3074.29
3061.11
3047.61
3032.44
3015.93
2998.17
2980.11
2961.81
2944.82
2928.73
2914.92
2903.03
2893.76
2887
2883.03
2881.39
2881.66
2882.69
2884.25
2885.1
2884.47
2881.72
2876.81
2869.34
2859.9
2848.45
2836.06
2823.11
2810.44
2799.65
2789.75
2784.43
2784.6
2789.48
2798.67
2809.25
2823.96
2837.21
2849.23
2853.6
2848.24
2847.29
2852.24
2865.43
2901.78
3045.62
3417.35
3843.42
4236.14
4610.43
4944.24
5224.69
5461.13
5655.89
5812.83
5925.84
6042.26
6193.47
6296.87
6362.11
6417.14
6419.91
6521.85
6528.2
6584.26
6606.07
6679.83
6701.05
6727.76
6786.8
6790.02
6833.51
6850.07
6862.03
6886
6936.45
6924.34
6918.74
6951.19
6931.85
6948.89
6980.66
6980.57
6986.28
6977.09
6960.86
6961.44
6965.94
6967.24
6972.66
6983.08
6947.69
6967.9
6938.96
6945.62
6950.71
6966.06
7007.76
6990.34
6981.98
7019.88
6991.49
7053.96
7050.73
7063.22
7053.57
7085.3
7174.01
7179.13
7202.46
7201.3
7238.84
7348.25
7338.74
7388.18
7452.54
7570.77
7529.88
7669.11
7667.73
7729.44
7881.54
7896.83
7914.74
7975.86
8059.71
8205.21
8207.97
8371.49
8360.97
8359.17
8431.21
8521.17
8601.5
8702.54
8864.3
8893.16
8955.77
9000.06
9044.75
9078.58
9106.36
9134.1
9141.75
9061.06
8970.51
8907.97
8810.31
8733.88
8550.76
8459.56
7996.63
11464.1
2157.45
1139.66
912.581
857.76
820.545
785.607
755.211
733.14
719.272
712.457
711.899
714.46
720.505
729.29
740.088
751.963
764.879
777.903
791.411
804.42
817.629
830.461
842.515
859.175
880.593
906.018
932.493
957.947
981.095
1001.37
1017.65
1030.67
1032.39
1030.45
1030.77
1012.68
1005.43
990.229
971.201
949.785
927.455
906.004
886.868
871.154
859.289
851.677
847.944
846.803
848.221
851.295
854.68
857.959
856.078
856.448
842.278
836.456
815.079
796.83
774.191
763.77
786.054
811.553
843.023
924.102
1041.87
1195.44
1399.53
1687.08
2020.38
2346.17
2669.92
2950.15
3174.59
3372.52
3538.33
3555.18
3529.08
3396.23
3232.03
3095.65
2951.92
2841.24
2735.16
2658.9
2597.87
2549.58
2507.44
2475.73
2448.51
2429.48
2412.42
2401.89
2392.39
2384.23
2375.32
2368.05
2360.02
2350.3
2340.88
2329.01
2322.77
2322.53
2322.97
2321.48
2320.38
2321.24
2321.78
2317.65
2320.4
2311.89
2302.98
2299.77
2297.28
2296.29
2299.43
2285.08
2283.67
2284.36
2285.55
2297.67
2297.62
2302.58
2303.91
2302.21
2310.19
2328.55
2325.27
2338.61
2372.39
2388.74
2407.57
2425.26
2439.85
2456.66
2468.59
2483.92
2495.95
2512.63
2527.37
2532.54
2519.35
2548.84
2622.59
2618.62
2678.99
2682.65
2698.13
2699.65
2704.07
2703.6
2708.47
2705.77
2716.49
2725.29
2732.24
2744.4
2750.34
2761.39
2779.06
2798.96
2816.57
2839.32
2860.1
2876.29
2895.18
2911.54
2934.26
2957.87
2970.96
2989.41
3002.67
2970.13
2908.31
2830.87
2776.23
2732.09
2681.48
2683.49
2713.78
11464.2
2394.88
1411.68
1140.07
932.053
797.628
693.093
618.574
565.722
528.446
502.489
484.615
472.941
466.147
463.369
463.787
465.541
469.267
474.483
480.864
488.157
496.215
504.842
513.95
524.172
535.592
548.18
561.596
575.348
588.886
601.714
613.276
623.197
630.271
634.767
637.179
635.823
634.063
628.533
621.178
612.294
602.474
592.402
582.681
573.834
566.209
560.084
555.507
552.361
550.575
550.053
550.603
551.604
553.157
555.666
558.047
563.349
570.43
585.039
608.999
649.171
714.509
807.418
924.594
1074.04
1272.1
1519.07
1781.24
2054.88
2296.61
2480.09
2637.48
2766.64
2782.24
2752.02
2548.96
2337.99
2218.36
2072.75
1964.33
1882.5
1809.61
1760.66
1717.79
1688.77
1665.07
1647.55
1633.13
1622.15
1613.18
1606.31
1601.11
1597.67
1593.86
1590.64
1587.93
1584.42
1580.97
1577.04
1573.97
1569.61
1564.95
1561.13
1563.23
1570.17
1566.09
1572.82
1573.29
1575.58
1576.76
1573.69
1574.9
1577.53
1580.18
1583.39
1593.12
1588.09
1591.59
1604.52
1601.37
1608.21
1621.28
1632.69
1639.33
1647.92
1657.37
1665.99
1673.61
1683.15
1695.46
1706.04
1716
1725.28
1733.02
1739.68
1746.8
1747.5
1738.36
1750.33
1764.22
1776.21
1809.19
1817.59
1834.28
1836.08
1849.75
1865.95
1866.63
1866.06
1872.49
1868.08
1866.32
1864.13
1864.65
1862.24
1860.97
1861.1
1862.71
1867.16
1874.41
1882.37
1891.28
1901.68
1912.03
1918.49
1945.27
1949.17
1957.3
1966.06
1963.56
1955.82
1927.17
1874.5
1816.78
1766.49
1728.87
1691.34
1675.28
1653
1684.46
11464.8
3031.61
1752.96
1227.41
947.569
769.817
651.267
570.681
514.864
475.561
447.742
428.289
414.755
405.631
399.927
396.906
396.077
396.859
398.738
401.93
406.214
411.433
417.461
424.266
431.845
440.155
449.121
458.604
468.404
478.254
487.856
496.875
504.984
511.79
517.078
520.756
522.687
523.081
522.021
519.178
514.95
509.994
504.605
499.118
493.857
489.093
485.081
482.03
480.122
479.56
480.61
483.326
488.379
496.236
507.898
524.722
549.098
583.328
628.783
690.619
773.119
886.444
1035.63
1216.1
1414.49
1622.25
1820.83
1991.07
2125.12
2241.03
2321.24
2321.42
2255.52
2104.45
1962.76
1802.61
1681.75
1598.8
1520.87
1465.94
1424.46
1391.55
1369.23
1351.51
1339.48
1330.3
1323.99
1318.99
1315.18
1311.74
1308.49
1305.35
1308.01
1305.29
1305.52
1309.31
1306.78
1309.76
1306.89
1311.1
1310.65
1308.07
1310.03
1312.54
1320.34
1320.6
1321.05
1323.88
1328.64
1339.04
1343.26
1350.42
1355.57
1360.98
1366.83
1373.5
1378.36
1384.19
1391.07
1395.87
1402.5
1411.04
1418.48
1426.11
1434.48
1442.68
1451.03
1459.35
1468.42
1477.82
1486.72
1494.9
1501.64
1505.4
1502.58
1521.71
1520.21
1527.85
1541.48
1567.43
1568.82
1596.78
1600.54
1611.76
1614.71
1630.88
1639.6
1642.87
1643.84
1653.17
1651.34
1651.07
1649.43
1646.12
1641.1
1635.87
1630.13
1625.3
1622.84
1624.54
1625.51
1628.26
1632.75
1638.24
1642.32
1652.61
1660.44
1656.43
1648.25
1628.84
1593.34
1547.55
1493.81
1443.01
1397.82
1360.98
1322.99
1310
1286.39
1298.24
11471.1
3604.7
1836.56
1187.6
868.247
692.482
587.452
520.339
475.026
443.249
420.598
404.452
392.955
384.917
379.566
376.348
374.899
374.924
375.984
378.012
381.11
385.128
390.005
395.686
402.09
409.137
416.734
424.764
433.08
441.499
449.813
457.787
465.182
471.758
477.328
481.765
484.997
487.039
487.895
487.639
486.34
484.236
481.687
478.978
476.381
474.153
472.633
472.21
473.231
476.227
481.722
490.17
502.629
520.397
545.187
579.277
625.915
689.762
776.58
885.168
1010.47
1149.86
1297.63
1451.13
1602.06
1737.95
1850.2
1946.11
1987.72
2014.06
1963.4
1851.14
1742.6
1610.47
1501.64
1408.21
1342.42
1292.2
1251.69
1223.47
1203.32
1189.04
1179.69
1173.09
1169.05
1165.98
1166.68
1167.48
1169.47
1170.59
1172.3
1173.87
1176.61
1178.26
1180.59
1183.36
1184.86
1187.43
1189.11
1192.39
1194.8
1197
1199.84
1202.98
1206.97
1209.48
1212.5
1216.43
1219.69
1229.35
1235.47
1241.75
1247.58
1253.77
1260.05
1266.39
1272.53
1278.88
1285.38
1291.69
1298.61
1306.18
1313.68
1321.55
1329.81
1338.22
1346.95
1355.97
1365.48
1375.25
1385.13
1395.07
1404.97
1414.77
1424.65
1438.65
1449.43
1462.19
1477.27
1493.27
1506.32
1523.2
1535.5
1549.17
1561.94
1576
1585.61
1589.53
1605.02
1607.48
1615.53
1620.13
1628.12
1626.19
1620.86
1612.76
1602.16
1589.63
1576.14
1563.14
1551.69
1543.2
1538.25
1536
1536.17
1539.59
1537.52
1527.98
1504.29
1464.67
1414.19
1362.38
1311.76
1264.89
1221.23
1183.18
1144.92
1127.27
1112.58
1104.55
11502.1
3677.42
1689.25
1041.79
764.933
621.902
538.286
484.924
449.044
424.145
406.46
393.815
384.758
378.348
374.012
371.44
370.377
370.569
371.636
373.699
376.718
380.617
385.339
390.809
396.96
403.717
410.995
418.689
426.677
434.81
442.921
450.825
458.335
465.268
471.472
476.83
481.272
484.768
487.328
488.865
489.585
489.629
489.268
489.05
489.18
489.765
491.355
494.633
500.144
508.668
521.215
539.195
564.221
598.279
643.718
702.878
777.247
865.95
965.541
1071.89
1184.56
1300.82
1416.15
1524.84
1621.13
1706.79
1775.27
1782.71
1759.35
1685.44
1597.23
1496.6
1400.59
1309.94
1242.6
1189.98
1151.86
1123.74
1103.78
1090.98
1083.22
1079.8
1078.28
1077.02
1078.99
1081.65
1085.19
1088.67
1092.71
1096.43
1100.19
1103.82
1107.47
1110.79
1114.13
1117.36
1120.3
1123.5
1126.61
1130.07
1133.3
1136.58
1140.04
1143.69
1147.56
1151.21
1155.28
1159.84
1164.8
1171.18
1176.86
1182.55
1188.21
1194.05
1199.96
1205.88
1211.82
1217.87
1224
1230.27
1236.89
1243.88
1251.08
1258.61
1266.49
1274.7
1283.31
1292.35
1301.88
1311.85
1322.31
1333.23
1344.64
1356.58
1369.46
1383.68
1397.85
1413.15
1429.79
1446.98
1464.44
1483.12
1501.25
1519.86
1538.72
1557.97
1575.76
1593.03
1609.41
1616.54
1643.76
1649.71
1660.75
1673.94
1671.89
1663.75
1648.48
1626.72
1599.87
1568.69
1537.52
1509.16
1486.26
1468.7
1455.29
1442.96
1425.3
1395.95
1351.07
1300.25
1253.14
1210.44
1169.36
1131.17
1094.18
1060.37
1028.07
998.695
978.527
975.184
11570.6
3341.8
1454.97
916.754
693.269
577.255
508.764
465.112
435.83
415.539
401.129
390.763
383.476
378.534
375.512
374
373.754
374.567
376.305
378.94
382.404
386.645
391.627
397.313
403.657
410.602
418.076
425.989
434.233
442.679
451.182
459.581
467.713
475.423
482.579
489.079
494.866
499.918
504.236
507.885
510.985
513.741
516.482
519.578
523.421
528.472
535.387
544.925
558.008
575.686
599.204
629.906
669.071
717.581
775.661
842.628
916.816
996.468
1081.41
1169.92
1259.44
1345.87
1427.3
1503.03
1565.04
1582.62
1578.16
1550.92
1483.84
1412.72
1334.58
1255.35
1186.08
1131.35
1090.85
1061.05
1040.55
1027.38
1020.69
1018.64
1017.95
1018.66
1020.79
1025.2
1030.47
1036.07
1041.82
1047.45
1053.04
1058.36
1063.46
1068.32
1072.95
1077.29
1081.45
1085.4
1089.17
1092.94
1096.67
1100.45
1104.13
1107.77
1111.44
1115.17
1119.02
1122.91
1127.1
1131.53
1136.29
1141.49
1146.56
1151.65
1156.78
1161.99
1167.26
1172.55
1177.86
1183.24
1188.7
1194.32
1200.18
1206.31
1212.7
1219.39
1226.41
1233.82
1241.66
1249.91
1258.62
1267.81
1277.56
1287.87
1298.8
1310.38
1322.89
1336.28
1350.3
1365.29
1381.33
1398.08
1415.62
1434.13
1453.18
1472.97
1493.45
1514.55
1535.56
1556.76
1577.18
1596.15
1619.02
1635.31
1647.36
1659.49
1668.68
1665.18
1652.46
1628.54
1593.24
1548.39
1498.52
1449.14
1404.92
1368.26
1338.82
1310.12
1270.99
1223.99
1178.34
1136.66
1098.89
1065.27
1034.89
1007.85
980.165
954.758
928.057
907.497
881.732
877.376
11661.4
2888.71
1295.75
847.247
656.122
555.058
495.013
456.834
431.244
413.571
401.32
393.005
387.49
384.074
382.298
381.798
382.384
383.994
386.511
389.868
394.019
398.929
404.568
410.904
417.901
425.509
433.67
442.307
451.329
460.624
470.066
479.516
488.832
497.876
506.531
514.7
522.318
529.348
535.819
541.876
547.7
553.544
559.778
566.846
575.265
585.629
598.62
614.956
635.331
660.472
691.034
727.274
769.239
816.864
869.853
928.169
991.147
1057.81
1126.55
1194.64
1262.47
1328.39
1387.07
1415.92
1425.69
1418.73
1380.78
1333.85
1275.7
1216.49
1154.42
1099.35
1055.85
1023.42
1000.98
986.681
978.32
974.045
973.366
973.774
977.137
981.952
988.145
995.14
1002.54
1010.01
1017.38
1024.51
1031.36
1037.86
1044
1049.8
1055.26
1060.4
1065.26
1069.86
1074.25
1078.51
1082.69
1086.81
1090.83
1094.79
1098.71
1102.61
1106.55
1110.55
1114.71
1119
1123.49
1128.13
1132.79
1137.46
1142.17
1146.93
1151.71
1156.52
1161.35
1166.21
1171.11
1176.12
1181.28
1186.61
1192.12
1197.84
1203.78
1209.96
1216.42
1223.17
1230.25
1237.67
1245.46
1253.69
1262.4
1271.63
1281.51
1292.03
1303.15
1314.98
1327.55
1340.77
1354.68
1369.31
1384.58
1400.5
1417.02
1434.02
1451.12
1468.29
1484.84
1500.79
1517.12
1530.74
1540.28
1547.53
1552.21
1548.71
1537.18
1515.62
1482.51
1438.02
1385.76
1331.97
1282.69
1237.8
1197.74
1156.27
1115.63
1076.41
1039.03
1004.4
972.983
945.252
920.541
899.425
879.463
861.589
841.11
827.026
805.699
800.812
11744.7
2518.53
1184.57
799.815
632.295
542.937
489.327
454.802
431.93
416.681
406.486
399.82
395.707
393.533
392.752
393.03
394.475
396.903
400.224
404.377
409.326
415.043
421.505
428.687
436.559
445.082
454.201
463.846
473.932
484.352
494.988
505.707
516.38
526.88
537.103
546.976
556.466
565.587
574.438
583.151
591.858
600.823
610.398
620.977
632.975
646.8
662.853
681.537
703.342
728.729
757.87
790.804
827.753
868.975
914.255
962.854
1013.75
1066.94
1121.59
1177.59
1228.14
1260.37
1282.83
1280.47
1276.8
1249.44
1212.82
1172.07
1126.57
1080.95
1038.54
1004.18
979.646
962.275
950.936
944.777
942.392
941.945
943.139
947.326
953.322
960.547
968.653
977.26
986.064
994.827
1003.38
1011.62
1019.48
1026.93
1033.94
1040.54
1046.74
1052.58
1058.08
1063.27
1068.2
1072.94
1077.52
1081.98
1086.33
1090.59
1094.75
1098.84
1102.9
1106.96
1111.09
1115.28
1119.54
1123.87
1128.19
1132.53
1136.86
1141.2
1145.53
1149.84
1154.14
1158.41
1162.66
1166.93
1171.23
1175.59
1180.01
1184.5
1189.08
1193.76
1198.57
1203.51
1208.61
1213.9
1219.39
1225.12
1231.12
1237.44
1244.12
1251.18
1258.61
1266.47
1274.76
1283.47
1292.6
1302.15
1312.06
1322.31
1332.85
1343.55
1354.15
1364.53
1374.25
1383.21
1391.52
1397.95
1401.73
1403.43
1402.56
1396.95
1385.77
1367.41
1340.03
1302.71
1257.66
1209.68
1163.05
1112.41
1068.5
1030.33
994.399
960.156
928.118
898.837
872.531
849.458
829.125
811.98
796.279
783.539
768.352
758.297
742.342
738.408
11810.5
2446.84
1170.58
792.662
628.227
541.292
490.054
458.087
437.437
423.956
415.254
409.877
406.94
405.745
405.643
406.661
408.887
412.097
416.206
421.16
426.928
433.487
440.814
448.887
457.678
467.148
477.246
487.903
499.033
510.53
522.278
534.151
546.026
557.788
569.35
580.651
591.676
602.449
613.028
623.458
633.846
644.378
655.282
666.823
679.283
692.954
708.155
725.239
744.68
766.858
791.761
819.601
850.564
884.669
921.384
960.949
1003.85
1047.38
1088.17
1120.77
1136.91
1155.55
1155.77
1154.67
1141.92
1117.95
1090.4
1060.02
1027.82
997.961
972.15
951.949
937.528
927.983
922.839
920.949
920.866
922.286
926.401
932.428
939.899
948.399
957.588
967.161
976.861
986.485
995.881
1004.95
1013.62
1021.85
1029.61
1036.92
1043.81
1050.32
1056.43
1062.19
1067.65
1072.86
1077.87
1082.7
1087.37
1091.93
1096.33
1100.62
1104.83
1108.98
1113.11
1117.23
1121.34
1125.44
1129.49
1133.5
1137.46
1141.36
1145.2
1148.96
1152.64
1156.24
1159.72
1163.11
1166.43
1169.68
1172.89
1176.05
1179.17
1182.26
1185.35
1188.45
1191.56
1194.71
1197.92
1201.21
1204.6
1208.1
1211.76
1215.56
1219.53
1223.67
1228
1232.51
1237.18
1242.01
1246.95
1251.96
1257.01
1261.97
1266.68
1271.06
1274.92
1278.13
1280.78
1282.24
1282.48
1281.54
1279.14
1274.15
1265.43
1251.3
1228.89
1196.06
1154.07
1106.42
1055.32
1004.01
962.759
927.314
895.001
865.304
838.184
813.783
792.073
773.176
756.67
742.841
730.433
720.694
709.651
702.366
690.684
687.858
11860.9
2425.2
1157.78
787.855
627.418
543.775
495.096
465.063
446.021
433.913
426.41
422.129
420.118
419.528
419.995
421.862
424.836
428.79
433.653
439.381
445.949
453.332
461.507
470.433
480.08
490.404
501.357
512.872
524.863
537.227
549.852
562.619
575.416
588.143
600.721
613.099
625.253
637.184
648.902
660.429
671.816
683.16
694.535
706.092
718.056
730.677
744.235
758.674
774.509
792
811.368
833.085
857.495
884.348
912.975
942.413
971.933
999.313
1022.82
1040.94
1050.89
1064.24
1064.15
1060.32
1049.9
1034.65
1016.19
995.437
974.034
954.402
937.915
925.3
916.609
911.611
909.638
909.514
910.898
914.401
919.72
926.587
934.684
943.698
953.341
963.352
973.507
983.619
993.543
1003.18
1012.45
1021.3
1029.69
1037.63
1045.13
1052.23
1058.91
1065.22
1071.2
1076.89
1082.34
1087.56
1092.58
1097.42
1102.1
1106.62
1111
1115.26
1119.42
1123.49
1127.48
1131.37
1135.16
1138.84
1142.39
1145.81
1149.1
1152.25
1155.26
1158.14
1160.84
1163.37
1165.74
1167.97
1170.08
1172.01
1173.81
1175.49
1177.07
1178.54
1179.95
1181.27
1182.54
1183.77
1184.97
1186.15
1187.33
1188.49
1189.65
1190.8
1191.96
1193.11
1194.24
1195.34
1196.38
1197.33
1198.2
1198.86
1199.21
1199.26
1199.02
1198.43
1197.58
1196.33
1194.71
1192.69
1189.9
1185.14
1176.6
1161.83
1138.16
1104.18
1061.15
1012.92
959.599
912.505
874.146
841.376
812.493
786.989
764.371
744.49
727.058
712.078
699.1
688.301
678.757
671.417
663.494
658.298
649.913
647.958
11896.6
2420.73
1156.69
788.807
631.018
549.495
502.586
474.072
456.361
445.438
439.004
435.724
434.49
434.408
435.572
438.172
441.87
446.552
452.16
458.663
466.045
474.287
483.345
493.164
503.674
514.798
526.512
538.767
551.499
564.625
578.055
591.699
605.476
619.32
633.187
647.057
660.927
674.798
688.657
702.514
716.459
730.57
744.44
757.933
771.229
784.547
797.95
810.923
823.81
836.939
850.766
866.009
883.035
901.57
921.039
940.671
958.156
975.015
990.177
1003.01
1012.6
1019.26
1019.82
1015.59
1008.21
997.312
984.059
969.502
954.815
941.331
929.954
921.191
915.217
912.047
911.095
911.463
913.481
917.292
922.745
929.61
937.626
946.534
956.086
966.05
976.228
986.446
996.564
1006.48
1016.1
1025.37
1034.23
1042.68
1050.71
1058.35
1065.6
1072.47
1078.99
1085.18
1091.07
1096.69
1102.06
1107.19
1112.1
1116.8
1121.3
1125.61
1129.75
1133.74
1137.56
1141.23
1144.72
1148.04
1151.17
1154.12
1156.88
1159.46
1161.85
1164.05
1166.04
1167.81
1169.36
1170.69
1171.85
1172.8
1173.55
1174.12
1174.53
1174.77
1174.84
1174.71
1174.44
1174.04
1173.52
1172.87
1172.11
1171.23
1170.24
1169.14
1167.91
1166.57
1165.08
1163.46
1161.68
1159.73
1157.63
1155.3
1152.75
1150.03
1147.16
1144.21
1141.29
1138.41
1135.55
1132.49
1128.53
1122.16
1111.11
1092.72
1065.08
1027.82
982.662
933.597
880.527
835.581
799.004
768.58
743.094
721.671
703.361
687.71
674.274
662.936
653.217
645.217
638.279
633.096
627.625
624.198
618.469
617.193
11916.9
2418.77
1157.52
792.213
636.297
556.486
511.09
483.937
467.464
457.675
452.348
449.939
449.252
449.782
451.963
455.377
459.866
465.343
471.775
479.153
487.48
496.754
506.934
517.907
529.512
541.677
554.352
567.53
581.225
595.421
610.089
625.195
640.71
656.604
672.879
689.573
706.75
724.477
742.496
760.721
779.275
798.009
816.243
833.785
850.667
866.8
882.009
896.482
910.22
923.19
935.385
946.762
957.584
967.802
977.791
988.023
998.26
1007.75
1016.31
1024.07
1029.31
1031.16
1028.76
1023.75
1015.62
1004.87
992.506
979.718
967.068
955.376
945.279
937.201
931.41
928.048
926.787
926.984
928.784
932.225
937.121
943.31
950.601
958.808
967.728
977.148
986.909
996.853
1006.83
1016.72
1026.45
1035.94
1045.11
1053.92
1062.35
1070.41
1078.08
1085.36
1092.26
1098.81
1105.01
1110.89
1116.48
1121.78
1126.81
1131.57
1136.08
1140.35
1144.39
1148.22
1151.83
1155.24
1158.44
1161.42
1164.17
1166.69
1168.98
1171.07
1172.93
1174.56
1175.96
1177.1
1177.96
1178.54
1178.9
1179.02
1178.84
1178.48
1177.91
1177.1
1176.1
1174.89
1173.47
1171.88
1170.1
1168.14
1166.02
1163.66
1161.1
1158.36
1155.42
1152.3
1148.97
1145.46
1141.75
1137.86
1133.8
1129.57
1125.21
1120.76
1116.28
1111.89
1107.66
1103.67
1099.71
1095.22
1089.13
1079.52
1064.01
1040.29
1007.55
966.15
918.589
864.69
812.561
768.829
734.009
706.253
684.465
667.179
653.027
641.339
631.594
623.586
616.782
611.348
606.785
603.581
600.082
598.402
594.833
594.04
11924.2
2417.83
1159.41
796.165
641.902
563.645
519.683
493.876
478.678
470.149
465.96
464.413
464.264
466.056
469.268
473.668
479.136
485.62
493.116
501.646
511.244
521.928
533.655
546.288
559.64
573.508
587.823
602.694
618.128
634.246
651.12
668.817
687.397
706.745
726.775
747.552
769.194
791.576
814.161
836.792
859.375
881.63
903.573
925.203
946.338
966.755
986.242
1004.64
1021.79
1037.53
1051.77
1064.4
1075.39
1084.7
1092.27
1097.94
1101.73
1103.41
1103.41
1102.57
1099.8
1095.2
1088.75
1080.34
1069.78
1057.73
1044.93
1032.6
1020.73
1009.4
998.773
989.087
980.749
974.691
971.099
969.077
968.522
969.566
972.091
976.013
981.162
987.425
994.614
1002.54
1011.04
1019.96
1029.11
1038.36
1047.63
1056.79
1065.76
1074.44
1082.81
1090.83
1098.5
1105.81
1112.74
1119.32
1125.53
1131.42
1136.98
1142.23
1147.19
1151.86
1156.24
1160.35
1164.19
1167.78
1171.14
1174.25
1177.13
1179.76
1182.13
1184.25
1186.11
1187.72
1189.09
1190.21
1191.07
1191.68
1191.93
1191.79
1191.4
1190.76
1189.86
1188.71
1187.3
1185.64
1183.73
1181.57
1179.19
1176.58
1173.76
1170.73
1167.49
1164.05
1160.4
1156.55
1152.5
1148.23
1143.75
1139.08
1134.23
1129.21
1124
1118.67
1113.27
1107.87
1102.48
1097.15
1091.93
1086.69
1081.12
1074.28
1064.64
1050.02
1028.3
998.015
959.102
912.214
861.312
803.096
751.405
709.139
676.814
652.466
634.824
621.751
611.578
603.563
597.176
592.167
587.87
584.929
582.54
581.146
579.244
579.801
577.655
576.989
11920.4
2415.66
1160.73
799.692
647.13
570.392
527.899
503.538
489.801
482.806
479.918
479.297
480.424
483.537
488.064
493.79
500.622
508.551
517.614
527.879
539.421
552.269
566.344
581.449
597.36
613.932
631.137
648.945
667.496
686.784
706.941
728.222
750.633
773.876
797.819
822.48
847.774
873.482
899.592
926.072
952.767
979.47
1006.01
1032.19
1057.8
1082.61
1106.37
1128.89
1149.94
1169.33
1186.89
1202.46
1215.9
1227.13
1236.13
1242.41
1245.24
1244.94
1243.14
1239.19
1233.02
1224.68
1214.62
1203.25
1190.64
1177.15
1163.14
1148.64
1134.26
1120.26
1106.79
1093.94
1081.89
1071.38
1062.51
1054.55
1047.38
1042.74
1040.09
1039.14
1039.79
1042.13
1045.85
1050.69
1056.44
1063.02
1070.09
1077.49
1085.1
1092.81
1100.53
1108.15
1115.57
1122.78
1129.74
1136.43
1142.82
1148.91
1154.68
1160.14
1165.31
1170.19
1174.78
1179.09
1183.11
1186.85
1190.33
1193.53
1196.49
1199.19
1201.65
1203.84
1205.75
1207.39
1208.76
1209.85
1210.69
1211.26
1211.54
1211.53
1211.01
1210.25
1209.21
1207.88
1206.27
1204.37
1202.2
1199.75
1197.04
1194.07
1190.85
1187.39
1183.71
1179.81
1175.7
1171.39
1166.88
1162.16
1157.25
1152.14
1146.83
1141.35
1135.7
1129.91
1124.04
1118.12
1112.16
1106.24
1100.27
1094.26
1087.86
1080.96
1072.81
1062
1046.76
1025
995.325
957.237
911.622
859.495
802.359
744.045
694.439
655.07
626.459
606.436
593.271
584.289
577.798
573.014
569.641
567.25
565.062
565.055
564.381
564.472
564.24
565.702
564.723
564.552
11933.1
2416.37
1162.43
803.047
652.158
576.971
536.115
513.457
501.651
496.403
494.902
495.741
499.046
504.094
510.559
518.288
527.254
537.512
549.175
562.386
577.264
593.788
611.741
630.784
650.679
671.445
692.719
714.692
737.39
760.451
784.344
809.261
835.094
861.837
889.516
918.065
947.366
977.265
1007.63
1038.32
1069.14
1099.92
1130.44
1160.52
1189.94
1218.47
1245.91
1272.03
1296.62
1319.47
1340.37
1359.13
1375.56
1389.52
1400.87
1409.46
1414.59
1416.44
1415.1
1411.45
1405.16
1396.39
1385.43
1372.61
1358.2
1342.31
1325.3
1307.61
1289.82
1272.5
1256.1
1240.89
1226.87
1213.35
1200.03
1187.33
1175
1163.8
1153.64
1144.98
1138.92
1135.01
1132.96
1132.41
1133
1135.36
1138.33
1141.93
1146.02
1150.57
1155.54
1160.66
1165.83
1171.01
1176.16
1181.23
1186.19
1190.99
1195.59
1199.99
1204.17
1208.13
1211.87
1215.38
1218.65
1221.67
1224.44
1226.95
1229.23
1231.26
1233.05
1234.57
1235.82
1236.8
1237.5
1237.89
1238.05
1237.95
1237.38
1236.52
1235.34
1233.85
1232.06
1229.97
1227.59
1224.91
1221.94
1218.7
1215.19
1211.42
1207.41
1203.16
1198.7
1194.03
1189.17
1184.13
1178.9
1173.51
1167.94
1162.21
1156.32
1150.28
1144.11
1137.84
1131.5
1125.14
1118.66
1112.18
1105.27
1097.62
1089.45
1079.54
1066.78
1049.49
1025.95
994.846
956.345
910.437
858.296
802.534
742.473
686.616
640.813
606.03
582.488
567.565
558.758
553.478
550.231
548.065
547.649
547.524
547.386
548.448
550.058
552.054
553.253
555.623
555.565
555.857
11957.3
2420.98
1165.47
807.082
657.772
584.275
545.398
525.158
515.783
512.703
513.187
517.01
523.154
531.109
540.632
551.666
564.295
578.705
595.145
613.84
634.808
657.637
681.871
706.949
732.242
757.732
783.086
808.85
835.288
862.851
891.607
921.429
952.212
983.855
1016.25
1049.29
1082.8
1116.66
1150.69
1184.76
1218.69
1252.33
1285.52
1318.07
1349.83
1380.61
1410.22
1438.47
1465.18
1490.13
1513.14
1533.99
1552.51
1568.52
1581.86
1592.37
1599.84
1604.03
1605.13
1603.18
1598.31
1590.67
1580.55
1568.17
1553.72
1537.38
1519.4
1500.12
1479.92
1459.26
1438.56
1418.23
1398.57
1379.78
1362.13
1346
1331.42
1316.61
1302.07
1287.95
1274.65
1263.62
1254.71
1247.54
1241.98
1237.85
1234.9
1232.92
1231.61
1231.17
1232.1
1233.2
1234.68
1236.5
1238.54
1240.85
1243.37
1245.94
1248.5
1251.02
1253.48
1255.86
1258.13
1260.27
1262.26
1264.07
1265.69
1267.1
1268.3
1269.31
1270.09
1270.63
1270.93
1270.98
1270.81
1270.19
1269.38
1268.26
1266.82
1265.08
1263.03
1260.67
1258.01
1255.05
1251.8
1248.26
1244.45
1240.37
1236.04
1231.46
1226.65
1221.63
1216.42
1211.03
1205.47
1199.76
1193.9
1187.91
1181.79
1175.54
1169.16
1162.67
1156.06
1149.34
1142.49
1135.59
1128.17
1120.1
1111.29
1101.55
1089.5
1074.05
1053.61
1027.02
993.473
953.136
907.228
856.464
801.225
742.171
683.993
632.722
592.274
563.483
545.877
535.99
530.682
528.506
527.717
527.587
529.283
531.429
535.094
539.339
542.946
546.183
548.434
550.139
550.896
550.43
11968.6
2426.71
1169.51
812.026
664.555
593.2
557.184
540.148
534.033
533.712
537.919
545.647
555.908
568.295
582.709
599.252
618.231
640.142
665.275
693.431
724.251
755.622
786.708
817.291
847.268
877.33
908.344
940.605
974.071
1008.64
1044.13
1080.33
1117.02
1154.02
1191.16
1228.28
1265.24
1301.9
1338.14
1373.83
1408.88
1443.2
1476.7
1509.26
1540.81
1571.22
1600.38
1628.15
1654.39
1678.94
1701.63
1722.3
1740.78
1756.91
1770.54
1781.52
1789.72
1795.02
1797.49
1796.97
1792.99
1786.08
1776.83
1765.26
1751.47
1735.57
1717.7
1698.07
1676.93
1654.58
1631.34
1607.56
1583.58
1559.73
1536.39
1514.04
1493.27
1473.95
1456.03
1438.7
1421.17
1404.5
1389.51
1376.1
1364.18
1353.7
1344.55
1336.65
1329.82
1324.24
1319.72