/*--------------------------------*- C++ -*----------------------------------*\
| =========                 |                                                 |
| \\      /  F ield         | OpenFOAM: The Open Source CFD Toolbox           |
|  \\    /   O peration     | Version:  2112                                  |
|   \\  /    A nd           | Website:  www.openfoam.com                      |
|    \\/     M anipulation  |                                                 |
\*---------------------------------------------------------------------------*/
FoamFile
{
    version     2.0;
    format      ascii;
    arch        "LSB;label=32;scalar=64";
    class       volScalarField;
    location    "200";
    object      p;
}
// * * * * * * * * * * * * * * * * * * * * * * * * * * * * * * * * * * * * * //

dimensions      [0 2 -2 0 0 0 0];

internalField   nonuniform List<scalar> 
12225
(
-5.08189
-5.94247
-6.32146
-6.43374
-6.55036
-6.69307
-6.82246
-6.92978
-7.02277
-7.10843
-7.19153
-7.27355
-7.35532
-7.43874
-7.52648
-7.62345
-7.73261
-7.86855
-5.35849
-5.99573
-6.31348
-6.4212
-6.53448
-6.67298
-6.80011
-6.90705
-7.00135
-7.08956
-7.17439
-7.25706
-7.33875
-7.42136
-7.5071
-7.59937
-7.69613
-7.79359
-5.56243
-5.99308
-6.2896
-6.41989
-6.53854
-6.67379
-6.79824
-6.90371
-6.99742
-7.08534
-7.16918
-7.25028
-7.32994
-7.40982
-7.49118
-7.57517
-7.65632
-7.72298
-5.70042
-6.01569
-6.29749
-6.43732
-6.5513
-6.67748
-6.79628
-6.89887
-6.99085
-7.07717
-7.15957
-7.23914
-7.31704
-7.39429
-7.47135
-7.5477
-7.61759
-7.67155
-5.81535
-6.05752
-6.31217
-6.45251
-6.56259
-6.68207
-6.79655
-6.89691
-6.98733
-7.07214
-7.1531
-7.23098
-7.3067
-7.38078
-7.45319
-7.52256
-7.5842
-7.63102
-5.91911
-6.10313
-6.32545
-6.46468
-6.5732
-6.68736
-6.79761
-6.89561
-6.98431
-7.0675
-7.14678
-7.2227
-7.29591
-7.36667
-7.43456
-7.49799
-7.55331
-7.59533
-6.01278
-6.15065
-6.34122
-6.47708
-6.58377
-6.69246
-6.79814
-6.89354
-6.98036
-7.06181
-7.13924
-7.21308
-7.28374
-7.35124
-7.415
-7.47348
-7.52399
-7.56299
-6.09678
-6.20002
-6.36131
-6.49082
-6.59461
-6.69762
-6.79846
-6.89096
-6.97565
-7.05511
-7.13048
-7.20209
-7.27012
-7.33446
-7.39448
-7.44885
-7.49573
-7.53282
-6.17214
-6.25009
-6.38524
-6.50599
-6.60593
-6.70331
-6.79911
-6.88831
-6.97054
-7.04772
-7.12081
-7.19002
-7.25536
-7.31665
-7.3733
-7.42427
-7.46837
-7.50417
-6.23988
-6.29948
-6.41196
-6.52253
-6.61782
-6.70967
-6.8003
-6.88584
-6.96532
-7.03996
-7.11056
-7.17722
-7.23985
-7.29823
-7.35186
-7.39998
-7.44188
-7.47671
-6.30088
-6.34708
-6.44047
-6.54026
-6.63016
-6.7166
-6.80205
-6.88366
-6.9601
-7.03202
-7.09997
-7.16399
-7.22393
-7.27956
-7.33047
-7.37618
-7.41628
-7.4503
-6.35133
-6.38854
-6.46739
-6.5573
-6.64175
-6.72331
-6.80405
-6.88188
-6.95535
-7.02462
-7.09004
-7.1516
-7.20911
-7.26235
-7.31103
-7.35479
-7.39348
-7.42681
-6.39658
-6.4272
-6.49394
-6.57447
-6.65331
-6.7301
-6.80625
-6.88026
-6.95066
-7.01723
-7.0801
-7.13922
-7.19439
-7.2454
-7.29203
-7.33408
-7.37152
-7.4042
-6.4426
-6.46767
-6.52326
-6.59399
-6.66634
-6.73779
-6.8089
-6.87856
-6.94537
-7.00879
-7.06875
-7.12513
-7.17773
-7.22637
-7.2709
-7.31123
-7.3474
-7.37939
-6.48767
-6.50811
-6.55397
-6.61508
-6.68033
-6.74598
-6.8117
-6.87658
-6.93934
-6.99921
-7.05594
-7.10932
-7.15918
-7.20535
-7.24776
-7.28635
-7.32124
-7.35247
-6.52923
-6.54594
-6.5838
-6.63612
-6.69413
-6.75378
-6.81401
-6.87391
-6.9323
-6.98836
-7.04163
-7.09188
-7.13891
-7.18261
-7.22289
-7.25979
-7.2934
-7.32382
-6.56367
-6.57756
-6.60928
-6.65428
-6.70569
-6.75961
-6.81459
-6.86965
-6.92372
-6.97591
-7.02573
-7.07287
-7.11715
-7.15845
-7.19672
-7.232
-7.26438
-7.29398
-6.58566
-6.59767
-6.62533
-6.66521
-6.71158
-6.76086
-6.81147
-6.86242
-6.91268
-6.96144
-7.00815
-7.0525
-7.0943
-7.13346
-7.16994
-7.20377
-7.23503
-7.26384
-6.58682
-6.59817
-6.62443
-6.66235
-6.70642
-6.75322
-6.80126
-6.84964
-6.89742
-6.94379
-6.98827
-7.03057
-7.07055
-7.10811
-7.14325
-7.17601
-7.20646
-7.23475
-6.55996
-6.57269
-6.60174
-6.64258
-6.68861
-6.73638
-6.78489
-6.8334
-6.88102
-6.92698
-6.97088
-7.01254
-7.05186
-7.08881
-7.1234
-7.15571
-7.18581
-7.21387
-6.52044
-6.53589
-6.5706
-6.61736
-6.66755
-6.71801
-6.76855
-6.81869
-6.8674
-6.91398
-6.95819
-6.99997
-7.03929
-7.07617
-7.11066
-7.14288
-7.17291
-7.20098
-6.46922
-6.48952
-6.5337
-6.58931
-6.64502
-6.69903
-6.75261
-6.80527
-6.85573
-6.90343
-6.94838
-6.99066
-7.03028
-7.06731
-7.10187
-7.13413
-7.16422
-7.19236
-6.40797
-6.43636
-6.49478
-6.56152
-6.62297
-6.68086
-6.73813
-6.79376
-6.84619
-6.89519
-6.94108
-6.98402
-7.02405
-7.06131
-7.09599
-7.12832
-7.15846
-7.18667
-6.33713
-6.37887
-6.45746
-6.53623
-6.60243
-6.6643
-6.72581
-6.78453
-6.83883
-6.88909
-6.93594
-6.97954
-7.01997
-7.05743
-7.09219
-7.12455
-7.15472
-7.18302
-6.25628
-6.31949
-6.42534
-6.51508
-6.58385
-6.64957
-6.71559
-6.7773
-6.83326
-6.8847
-6.93247
-6.97667
-7.0174
-7.05494
-7.08966
-7.12191
-7.15195
-7.18018
-6.16475
-6.26043
-6.4001
-6.49853
-6.5679
-6.63704
-6.70698
-6.77098
-6.82825
-6.88079
-6.92949
-6.97436
-7.01546
-7.05317
-7.08791
-7.12011
-7.15013
-7.17857
-6.06182
-6.20606
-6.37853
-6.48115
-6.55226
-6.62645
-6.70017
-6.76582
-6.82395
-6.87725
-6.92655
-6.97175
-7.01293
-7.05058
-7.08508
-7.11684
-7.1465
-7.17491
-5.9384
-6.17108
-6.36472
-6.45809
-6.5307
-6.61308
-6.69281
-6.76175
-6.82228
-6.87767
-6.92865
-6.97497
-7.01677
-7.05479
-7.08952
-7.12111
-7.15043
-7.17938
-5.75517
-6.1639
-6.38967
-6.46148
-6.52512
-6.60834
-6.68885
-6.75738
-6.81776
-6.87348
-6.92499
-6.97172
-7.01368
-7.05137
-7.08557
-7.11669
-7.14523
-7.17188
-5.49102
-6.09104
-6.38301
-6.46229
-6.53022
-6.6194
-6.70381
-6.77408
-6.83529
-6.89165
-6.9435
-6.99023
-7.03171
-7.0678
-7.09947
-7.12833
-7.15436
-7.1753
-8.11557
-8.11571
-8.11587
-8.11502
-8.11125
-8.10465
-8.09792
-8.09387
-8.0945
-8.09934
-8.10722
-8.11755
-8.13014
-8.14449
-8.15993
-8.17574
-8.19147
-8.20671
-8.22123
-8.23477
-8.24722
-8.25838
-8.26823
-8.27659
-8.28348
-8.2889
-8.29316
-8.29641
-8.29895
-8.30095
-8.30268
-8.3041
-8.30526
-8.30618
-8.3071
-8.30817
-8.30961
-8.31145
-8.31381
-8.31664
-8.32001
-8.32381
-8.32804
-8.33258
-8.33742
-8.34245
-8.34766
-8.35289
-8.35805
-8.36296
-8.36759
-8.37184
-8.37579
-8.37944
-8.38294
-8.38636
-8.38999
-8.39399
-8.39858
-8.40384
-8.40989
-8.41674
-8.42453
-8.43335
-8.44336
-8.45423
-8.46537
-8.47583
-8.4849
-8.49245
-8.49876
-8.50404
-8.50898
-8.51261
-8.51735
-8.52863
-8.55396
-8.60653
-8.69773
-8.83116
-9.00069
-9.19269
-9.39197
-9.58424
-9.75966
-9.91227
-10.0402
-10.1437
-10.225
-10.2865
-10.3307
-10.3604
-10.3781
-10.3856
-10.3846
-10.3762
-10.3613
-10.3406
-10.3144
-10.2829
-10.2462
-10.2042
-10.1569
-10.1045
-10.0467
-9.98345
-9.91445
-9.83962
-9.75866
-9.67179
-9.5789
-9.48028
-9.37573
-9.26559
-9.15006
-9.02996
-8.9051
-8.7755
-8.64075
-8.50122
-8.35697
-8.20838
-8.05481
-7.89615
-7.7316
-7.56133
-7.3848
-7.20295
-7.01585
-6.82504
-6.6311
-6.43619
-6.24106
-6.04784
-5.85735
-5.67157
-5.49025
-5.3133
-5.13896
-4.96597
-4.7927
-4.61747
-4.43892
-4.25607
-4.06911
-3.8794
-3.69053
-3.50718
-3.33504
-3.17933
-3.04469
-2.9322
-2.83872
-2.75433
-2.66201
-2.53629
-2.34408
-2.0467
-1.60371
-0.977656
-0.140975
0.919334
2.19588
3.66021
5.26431
6.94504
8.63171
10.2568
11.7647
13.1158
14.2877
15.2741
16.0793
16.7177
17.21
17.5745
17.8339
18.014
18.1818
18.3284
-8.11961
-8.1203
-8.12183
-8.1221
-8.11893
-8.1142
-8.11177
-8.11297
-8.11712
-8.12363
-8.13225
-8.14273
-8.15476
-8.16782
-8.18146
-8.19523
-8.20885
-8.22197
-8.23444
-8.24604
-8.25668
-8.26621
-8.27464
-8.28197
-8.28828
-8.29351
-8.29763
-8.30065
-8.30278
-8.30404
-8.30457
-8.30456
-8.30433
-8.30406
-8.304
-8.30427
-8.30508
-8.3065
-8.30863
-8.31147
-8.31505
-8.31928
-8.32413
-8.32944
-8.33509
-8.34092
-8.34682
-8.35262
-8.35819
-8.36333
-8.368
-8.37214
-8.37586
-8.3792
-8.38231
-8.38531
-8.38844
-8.39191
-8.39597
-8.40085
-8.4067
-8.41354
-8.42144
-8.43045
-8.44062
-8.45141
-8.462
-8.4713
-8.47852
-8.48309
-8.48346
-8.48222
-8.48724
-8.50118
-8.51492
-8.52486
-8.54906
-8.61491
-8.73448
-8.90232
-9.10164
-9.31229
-9.51707
-9.7039
-9.86645
-10.0024
-10.1126
-10.1997
-10.2667
-10.3163
-10.3509
-10.3732
-10.3852
-10.3886
-10.3844
-10.3737
-10.3572
-10.3354
-10.3085
-10.2765
-10.2396
-10.1976
-10.1505
-10.0984
-10.0412
-9.97864
-9.91046
-9.8364
-9.75629
-9.67005
-9.57799
-9.48009
-9.37626
-9.26633
-9.15056
-9.02956
-8.90386
-8.77359
-8.63879
-8.49946
-8.35574
-8.20768
-8.05502
-7.89731
-7.73421
-7.56531
-7.39045
-7.21
-7.0243
-6.83419
-6.64062
-6.44495
-6.24852
-6.05287
-5.8595
-5.67008
-5.48518
-5.30451
-5.127
-4.95144
-4.77648
-4.60043
-4.42174
-4.23902
-4.05215
-3.86213
-3.67185
-3.48586
-3.3101
-3.15014
-3.01109
-2.89525
-2.8007
-2.71875
-2.63334
-2.52
-2.34651
-2.07417
-1.66193
-1.07061
-0.270108
0.754927
1.99945
3.43681
5.01964
6.68494
8.36166
9.98141
11.4878
12.8415
14.02
15.0175
15.8376
16.4894
16.9927
17.3688
17.6413
17.8329
18
18.1187
-8.122
-8.12134
-8.12079
-8.12056
-8.12006
-8.12056
-8.12378
-8.12968
-8.13753
-8.14686
-8.15742
-8.16885
-8.18083
-8.19302
-8.2052
-8.2171
-8.22855
-8.23933
-8.24937
-8.25851
-8.26675
-8.27398
-8.28023
-8.28546
-8.28972
-8.29296
-8.29523
-8.29657
-8.29717
-8.29716
-8.29681
-8.29632
-8.29595
-8.29583
-8.29611
-8.29688
-8.29826
-8.30031
-8.30308
-8.30654
-8.31071
-8.31548
-8.32081
-8.32654
-8.33256
-8.33869
-8.34481
-8.35073
-8.35629
-8.36137
-8.3659
-8.36985
-8.37325
-8.37613
-8.37863
-8.38095
-8.38338
-8.38619
-8.3897
-8.39406
-8.39942
-8.40583
-8.41327
-8.4218
-8.43126
-8.44081
-8.44932
-8.45532
-8.45828
-8.46035
-8.46428
-8.47305
-8.49332
-8.53453
-8.59723
-8.67723
-8.77548
-8.89708
-9.04249
-9.20456
-9.37348
-9.53967
-9.69564
-9.83648
-9.95952
-10.0639
-10.1501
-10.2195
-10.2738
-10.3146
-10.3432
-10.3613
-10.3706
-10.3726
-10.3676
-10.3568
-10.3406
-10.3192
-10.293
-10.2619
-10.2262
-10.1856
-10.1401
-10.0893
-10.0334
-9.97201
-9.90505
-9.83213
-9.75329
-9.6683
-9.57745
-9.48066
-9.37798
-9.26904
-9.1541
-9.03344
-8.90771
-8.77701
-8.64178
-8.50195
-8.35791
-8.20946
-8.05667
-7.89915
-7.73678
-7.56892
-7.39583
-7.21719
-7.03355
-6.84508
-6.65287
-6.45744
-6.26038
-6.06287
-5.86687
-5.67375
-5.48491
-5.30017
-5.11906
-4.94106
-4.76505
-4.58969
-4.41315
-4.23406
-4.05147
-3.86615
-3.68016
-3.49746
-3.32315
-3.16275
-3.02127
-2.90181
-2.80333
-2.71914
-2.63494
-2.5284
-2.36885
-2.11858
-1.73605
-1.18054
-0.418964
0.567528
1.77748
3.18672
4.74875
6.39966
8.06737
9.68274
11.1883
12.5448
13.7303
14.7383
15.5704
16.2358
16.7528
17.1417
17.4262
17.627
17.7864
17.8596
-8.12568
-8.12429
-8.12354
-8.12588
-8.12997
-8.13521
-8.14198
-8.15018
-8.15951
-8.16966
-8.18043
-8.19154
-8.20279
-8.21391
-8.22473
-8.23505
-8.24476
-8.2537
-8.2618
-8.26899
-8.27526
-8.28055
-8.28492
-8.28833
-8.29083
-8.29243
-8.29325
-8.29337
-8.29297
-8.29218
-8.29122
-8.29023
-8.28943
-8.28895
-8.28898
-8.28961
-8.29098
-8.29316
-8.2962
-8.30008
-8.30477
-8.31013
-8.31604
-8.32231
-8.32875
-8.33516
-8.34136
-8.34719
-8.35253
-8.35726
-8.36132
-8.36473
-8.36753
-8.36977
-8.37171
-8.37367
-8.37589
-8.37849
-8.3816
-8.38522
-8.38943
-8.3943
-8.39984
-8.40594
-8.41216
-8.41782
-8.42248
-8.42734
-8.43417
-8.44459
-8.46319
-8.49897
-8.5598
-8.64741
-8.7579
-8.8817
-9.01055
-9.1426
-9.27836
-9.4161
-9.55281
-9.68482
-9.80847
-9.92088
-10.0201
-10.1052
-10.1762
-10.234
-10.2795
-10.3138
-10.3381
-10.3535
-10.3611
-10.362
-10.3568
-10.3461
-10.3303
-10.3097
-10.2844
-10.2544
-10.2199
-10.1808
-10.1369
-10.0877
-10.033
-9.9729
-9.90714
-9.83556
-9.7581
-9.67462
-9.585
-9.48928
-9.38743
-9.27945
-9.16544
-9.04546
-8.91983
-8.78886
-8.65303
-8.51257
-8.36774
-8.21842
-8.06464
-7.90642
-7.74366
-7.576
-7.40349
-7.22577
-7.04324
-6.85599
-6.66464
-6.46952
-6.27181
-6.07281
-5.87418
-5.6772
-5.48335
-5.29309
-5.10667
-4.92432
-4.74543
-4.56904
-4.3937
-4.21814
-4.04106
-3.86287
-3.68491
-3.50992
-3.34181
-3.18541
-3.04496
-2.92358
-2.82074
-2.7311
-2.64246
-2.53512
-2.38076
-2.14352
-1.7821
-1.25479
-0.52556
0.428159
1.60923
2.99625
4.54364
6.18571
7.8488
9.46313
10.9715
12.3342
13.5281
14.544
15.3821
16.0524
16.5727
16.9631
17.2469
17.4426
17.5817
17.6104
-8.13145
-8.13102
-8.13283
-8.13783
-8.14449
-8.15235
-8.16109
-8.17048
-8.18042
-8.19075
-8.20127
-8.21179
-8.22215
-8.23218
-8.24176
-8.25071
-8.25896
-8.26638
-8.27294
-8.27855
-8.28322
-8.28692
-8.28969
-8.29152
-8.29247
-8.2926
-8.29205
-8.29091
-8.28942
-8.28774
-8.28607
-8.28456
-8.28341
-8.28278
-8.28285
-8.28369
-8.2854
-8.28797
-8.29142
-8.29565
-8.30062
-8.30619
-8.31223
-8.31855
-8.32499
-8.33135
-8.33748
-8.34317
-8.34831
-8.35275
-8.35646
-8.35945
-8.36178
-8.36363
-8.36525
-8.36676
-8.36824
-8.36966
-8.37113
-8.37277
-8.37476
-8.37728
-8.38055
-8.38446
-8.38851
-8.39307
-8.39958
-8.4112
-8.43228
-8.46624
-8.51837
-8.5927
-8.68882
-8.80055
-8.92167
-9.04731
-9.17379
-9.30004
-9.42553
-9.54891
-9.66816
-9.78107
-9.88555
-9.97992
-10.0631
-10.1344
-10.1942
-10.243
-10.2816
-10.3109
-10.3319
-10.3455
-10.3522
-10.3527
-10.3479
-10.3379
-10.323
-10.3036
-10.2798
-10.2515
-10.2186
-10.1809
-10.1383
-10.0906
-10.0373
-9.97846
-9.91391
-9.84378
-9.76775
-9.68582
-9.5976
-9.50312
-9.40213
-9.29511
-9.18196
-9.06279
-8.9376
-8.80689
-8.67081
-8.52998
-8.3843
-8.2342
-8.07944
-7.92042
-7.75675
-7.58878
-7.41598
-7.23863
-7.05645
-6.87001
-6.67914
-6.48473
-6.28702
-6.08753
-5.88719
-5.68753
-5.48933
-5.29392
-5.10217
-4.9147
-4.73178
-4.55289
-4.37745
-4.20421
-4.03258
-3.86224
-3.69418
-3.52971
-3.37164
-3.22311
-3.08763
-2.96739
-2.86227
-2.76754
-2.67304
-2.56131
-2.40686
-2.17592
-1.82866
-1.32272
-0.619848
0.30665
1.4636
2.83246
4.36826
6.00475
7.667
9.28463
10.8005
12.1734
13.3777
14.4017
15.2454
15.9191
16.44
16.8282
17.1057
17.2884
17.4007
17.3885
-8.13626
-8.13764
-8.14349
-8.15081
-8.15889
-8.16785
-8.17737
-8.18722
-8.1973
-8.20748
-8.21762
-8.22756
-8.23721
-8.24639
-8.25503
-8.26298
-8.27017
-8.27651
-8.28196
-8.28643
-8.28995
-8.29247
-8.29404
-8.29466
-8.29444
-8.29349
-8.29195
-8.28991
-8.28756
-8.28509
-8.28274
-8.28067
-8.27911
-8.27822
-8.27816
-8.27899
-8.28078
-8.28347
-8.28701
-8.29131
-8.29628
-8.30178
-8.30771
-8.31386
-8.3201
-8.32624
-8.3322
-8.33781
-8.34287
-8.34712
-8.35054
-8.3531
-8.35482
-8.35587
-8.35638
-8.35642
-8.35603
-8.35534
-8.35468
-8.35454
-8.35525
-8.35663
-8.35853
-8.36109
-8.36474
-8.37148
-8.38578
-8.41249
-8.45705
-8.52209
-8.60681
-8.70679
-8.81714
-8.93389
-9.05374
-9.1748
-9.2954
-9.41434
-9.5304
-9.64222
-9.74826
-9.84705
-9.93743
-10.0186
-10.09
-10.1515
-10.2033
-10.2458
-10.2796
-10.3057
-10.3245
-10.3369
-10.3432
-10.3441
-10.3401
-10.3314
-10.318
-10.3002
-10.2781
-10.2517
-10.2206
-10.1846
-10.1436
-10.0974
-10.0456
-9.98824
-9.92512
-9.85624
-9.78154
-9.70082
-9.61389
-9.52048
-9.42064
-9.31451
-9.20217
-9.08373
-8.95937
-8.8293
-8.69366
-8.55276
-8.40687
-8.25627
-8.10109
-7.94148
-7.77739
-7.60894
-7.43611
-7.25893
-7.07735
-6.89153
-6.70158
-6.50799
-6.31112
-6.11185
-5.91115
-5.71003
-5.50941
-5.31067
-5.11498
-4.92323
-4.73623
-4.55425
-4.37724
-4.2047
-4.03656
-3.87242
-3.71274
-3.55823
-3.41032
-3.2708
-3.14196
-3.02513
-2.92004
-2.8226
-2.72398
-2.60881
-2.45397
-2.22794
-1.8926
-1.40558
-0.726757
0.174084
1.3074
2.65745
4.18004
5.80936
7.47063
9.09318
10.6181
12.0015
13.2157
14.2481
15.0984
15.7769
16.3
16.6874
16.9592
17.1297
17.2187
17.1763
-8.13946
-8.14337
-8.15177
-8.16003
-8.16863
-8.17803
-8.1879
-8.19794
-8.20802
-8.21801
-8.22783
-8.23735
-8.24647
-8.25507
-8.26307
-8.27035
-8.27686
-8.28251
-8.28726
-8.29103
-8.29384
-8.29564
-8.29648
-8.2964
-8.29553
-8.29393
-8.29174
-8.2891
-8.2862
-8.28322
-8.2804
-8.27795
-8.27611
-8.275
-8.2748
-8.27553
-8.27722
-8.27976
-8.28306
-8.28702
-8.29157
-8.29663
-8.30209
-8.30779
-8.31355
-8.31917
-8.32448
-8.3293
-8.33356
-8.33729
-8.34043
-8.34258
-8.3435
-8.3433
-8.34223
-8.34038
-8.33808
-8.33575
-8.3337
-8.332
-8.33084
-8.33034
-8.33053
-8.33192
-8.33666
-8.34881
-8.37489
-8.4207
-8.48826
-8.57486
-8.6757
-8.78606
-8.90177
-9.02034
-9.13972
-9.25833
-9.37474
-9.48777
-9.59632
-9.69931
-9.79564
-9.88445
-9.96512
-10.0372
-10.1007
-10.1555
-10.2019
-10.2403
-10.2713
-10.2955
-10.3134
-10.3255
-10.3323
-10.3343
-10.3317
-10.3247
-10.3133
-10.2976
-10.2777
-10.2533
-10.2243
-10.1903
-10.1513
-10.1068
-10.0569
-10.0012
-9.93971
-9.8722
-9.79878
-9.71917
-9.63344
-9.54118
-9.44261
-9.33758
-9.22631
-9.10877
-8.98533
-8.856
-8.72109
-8.58058
-8.43512
-8.2846
-8.12956
-7.9699
-7.80603
-7.63768
-7.46527
-7.28846
-7.10767
-6.9226
-6.73375
-6.54102
-6.34521
-6.14663
-5.94633
-5.74494
-5.54349
-5.34315
-5.14509
-4.95046
-4.76013
-4.57506
-4.39563
-4.22233
-4.05521
-3.89441
-3.73992
-3.59229
-3.45197
-3.32008
-3.19755
-3.08513
-2.98187
-2.8843
-2.78432
-2.66837
-2.51512
-2.29516
-1.97159
-1.50266
-0.846789
0.0286985
1.13756
2.46673
3.97362
5.59327
7.25162
8.87684
10.4077
11.7985
13.0203
14.0596
14.9161
15.5996
16.126
16.5139
16.7819
16.9429
17.0153
16.9543
-8.13703
-8.14273
-8.15172
-8.16085
-8.17049
-8.18066
-8.19102
-8.20133
-8.2115
-8.22143
-8.23106
-8.24029
-8.24908
-8.25733
-8.26498
-8.27194
-8.27815
-8.2835
-8.28797
-8.29147
-8.29401
-8.29555
-8.29613
-8.29581
-8.29469
-8.29278
-8.29025
-8.28728
-8.28408
-8.28083
-8.27774
-8.27501
-8.27286
-8.27144
-8.27093
-8.27136
-8.27273
-8.27492
-8.27781
-8.28132
-8.28546
-8.29014
-8.29522
-8.30053
-8.30584
-8.31092
-8.31554
-8.31952
-8.32295
-8.32585
-8.32798
-8.32884
-8.32824
-8.32633
-8.32324
-8.31918
-8.31457
-8.30967
-8.30465
-8.2997
-8.29515
-8.29133
-8.28871
-8.28931
-8.29764
-8.31949
-8.35977
-8.42067
-8.50097
-8.59726
-8.70484
-8.81963
-8.93833
-9.05863
-9.17855
-9.29641
-9.41082
-9.52056
-9.62455
-9.72191
-9.81207
-9.89469
-9.96945
-10.0361
-10.0948
-10.1456
-10.1889
-10.2251
-10.2548
-10.2786
-10.2967
-10.3097
-10.3178
-10.3214
-10.3208
-10.3161
-10.3072
-10.2941
-10.2767
-10.2548
-10.2281
-10.1965
-10.1596
-10.1174
-10.0696
-10.0159
-9.9563
-9.89058
-9.81864
-9.74051
-9.65609
-9.56529
-9.46807
-9.36438
-9.25428
-9.13783
-9.01527
-8.88689
-8.75281
-8.61326
-8.46855
-8.3188
-8.1643
-8.00516
-7.84153
-7.67357
-7.50141
-7.32511
-7.14481
-6.96053
-6.77242
-6.58061
-6.38565
-6.18801
-5.98838
-5.78743
-5.58601
-5.38519
-5.1861
-4.98984
-4.79748
-4.61008
-4.42858
-4.25391
-4.0866
-3.92696
-3.77513
-3.63142
-3.49604
-3.36952
-3.25217
-3.14401
-3.04376
-2.94806
-2.84944
-2.73533
-2.58588
-2.37318
-2.06123
-1.60877
-0.973372
-0.120768
0.964881
2.27225
3.76143
5.36912
7.02099
8.64378
10.1751
11.5679
12.7928
13.8359
14.6967
15.3844
15.9141
16.3032
16.5694
16.7245
16.7861
16.7154
-8.12361
-8.12971
-8.13999
-8.15152
-8.16325
-8.17488
-8.18622
-8.19714
-8.20762
-8.21764
-8.22724
-8.23637
-8.24504
-8.25318
-8.26077
-8.26769
-8.27388
-8.27926
-8.28379
-8.28738
-8.29004
-8.29172
-8.29248
-8.29233
-8.29134
-8.28959
-8.28723
-8.28437
-8.28121
-8.27788
-8.27461
-8.27157
-8.26897
-8.26694
-8.26567
-8.26522
-8.26568
-8.26703
-8.2693
-8.27245
-8.27641
-8.28095
-8.28592
-8.29109
-8.29629
-8.30131
-8.30596
-8.31002
-8.31323
-8.31497
-8.31467
-8.31242
-8.30877
-8.30376
-8.29729
-8.28943
-8.28044
-8.27048
-8.25972
-8.24851
-8.23763
-8.2284
-8.22315
-8.22566
-8.2407
-8.27239
-8.32334
-8.39406
-8.48236
-8.5845
-8.69629
-8.81416
-8.93528
-9.05733
-9.17823
-9.29626
-9.40993
-9.51788
-9.61919
-9.71344
-9.8004
-9.87982
-9.95147
-10.0154
-10.0717
-10.1208
-10.1631
-10.1989
-10.229
-10.2536
-10.2731
-10.2878
-10.2981
-10.3041
-10.3062
-10.3043
-10.2985
-10.2885
-10.2741
-10.2552
-10.2314
-10.2026
-10.1684
-10.1289
-10.0835
-10.0324
-9.975
-9.91145
-9.84141
-9.76506
-9.68218
-9.59293
-9.49703
-9.39464
-9.28565
-9.17033
-9.04869
-8.92117
-8.78777
-8.64907
-8.50501
-8.35602
-8.20202
-8.04338
-7.87992
-7.71223
-7.54016
-7.36419
-7.18414
-7.00045
-6.81292
-6.62206
-6.42799
-6.23144
-6.03278
-5.83277
-5.63214
-5.43179
-5.23283
-5.03617
-4.84301
-4.6543
-4.47133
-4.29519
-4.12696
-3.96702
-3.81584
-3.67364
-3.54081
-3.41741
-3.30369
-3.19898
-3.10201
-3.00912
-2.91353
-2.80291
-2.65859
-2.45356
-2.15259
-1.71457
-1.09684
-0.264049
0.801013
2.08856
3.55966
5.15229
6.79228
8.40604
9.9306
11.3189
12.5413
13.5839
14.4459
15.1361
15.6684
16.0593
16.3253
16.4777
16.5336
16.4597
-8.09749
-8.10393
-8.1174
-8.13288
-8.1477
-8.16148
-8.17426
-8.1861
-8.19711
-8.20741
-8.21711
-8.22628
-8.23498
-8.24319
-8.25088
-8.25793
-8.26432
-8.26996
-8.27481
-8.2788
-8.2819
-8.28409
-8.28541
-8.28586
-8.2855
-8.28441
-8.28272
-8.28052
-8.27796
-8.27518
-8.27236
-8.26959
-8.26706
-8.26485
-8.26311
-8.26193
-8.26145
-8.26182
-8.26321
-8.26562
-8.26894
-8.27292
-8.27738
-8.28207
-8.28685
-8.29145
-8.29551
-8.29854
-8.29996
-8.29911
-8.2957
-8.28997
-8.28219
-8.27222
-8.26001
-8.24564
-8.22922
-8.21093
-8.19122
-8.17105
-8.15222
-8.13737
-8.13015
-8.13507
-8.15652
-8.19721
-8.25807
-8.3379
-8.43356
-8.54109
-8.65675
-8.77749
-8.90078
-9.0243
-9.14607
-9.26434
-9.37751
-9.48442
-9.58455
-9.67766
-9.76344
-9.84166
-9.91228
-9.97548
-10.0316
-10.0809
-10.1239
-10.1608
-10.1924
-10.2192
-10.2412
-10.2587
-10.2718
-10.2811
-10.2868
-10.2888
-10.2868
-10.2807
-10.2701
-10.2549
-10.2346
-10.2092
-10.1784
-10.1419
-10.0995
-10.0511
-9.99627
-9.93496
-9.86703
-9.79239
-9.71104
-9.62296
-9.52813
-9.42661
-9.31846
-9.20389
-9.083
-8.95596
-8.82308
-8.68471
-8.54108
-8.39241
-8.23881
-8.08042
-7.91736
-7.7499
-7.57818
-7.40244
-7.22275
-7.03943
-6.85252
-6.66233
-6.46911
-6.2734
-6.07567
-5.87657
-5.67681
-5.47723
-5.27874
-5.08225
-4.88887
-4.69971
-4.51602
-4.33893
-4.1696
-4.0088
-3.85716
-3.71523
-3.58342
-3.46189
-3.35073
-3.24903
-3.15533
-3.06576
-2.97377
-2.86709
-2.72752
-2.52875
-2.23614
-1.80875
-1.20407
-0.386662
0.660711
1.92912
3.38064
4.95439
6.5766
8.17417
9.68439
11.061
12.2746
13.3119
14.1715
14.8618
15.3957
15.7885
16.0555
16.2078
16.2619
16.1896
-8.0616
-8.06943
-8.08753
-8.10785
-8.12625
-8.14247
-8.15689
-8.16976
-8.18138
-8.19199
-8.20185
-8.21112
-8.21993
-8.22828
-8.23614
-8.24344
-8.25015
-8.25622
-8.2616
-8.26622
-8.27005
-8.27305
-8.27525
-8.27666
-8.27734
-8.27736
-8.27684
-8.27588
-8.27463
-8.2732
-8.27171
-8.27024
-8.26891
-8.26774
-8.26684
-8.26622
-8.26601
-8.2663
-8.26728
-8.26902
-8.27149
-8.27449
-8.27778
-8.28105
-8.28409
-8.2866
-8.28823
-8.28836
-8.2863
-8.28149
-8.27376
-8.26294
-8.24885
-8.23142
-8.21082
-8.1872
-8.16072
-8.13175
-8.10121
-8.07087
-8.04369
-8.0237
-8.01574
-8.02459
-8.05366
-8.10404
-8.17467
-8.26267
-8.36431
-8.47587
-8.59415
-8.71657
-8.84095
-8.96522
-9.08735
-9.20553
-9.31831
-9.42489
-9.52496
-9.61812
-9.70403
-9.7825
-9.85364
-9.91773
-9.97515
-10.0263
-10.0713
-10.1105
-10.1447
-10.1746
-10.2004
-10.2219
-10.2393
-10.2531
-10.2636
-10.2705
-10.2734
-10.2719
-10.2659
-10.2549
-10.2388
-10.2172
-10.1899
-10.1566
-10.1172
-10.0711
-10.0186
-9.95915
-9.89291
-9.81962
-9.73945
-9.65219
-9.55811
-9.45713
-9.34954
-9.23535
-9.11492
-8.9882
-8.85573
-8.71758
-8.57429
-8.42579
-8.27254
-8.11439
-7.95178
-7.78461
-7.61341
-7.43805
-7.259
-7.07612
-6.88988
-6.70026
-6.50784
-6.31289
-6.11601
-5.91776
-5.71883
-5.52
-5.32206
-5.12595
-4.93262
-4.74331
-4.55915
-4.38149
-4.21139
-4.05008
-3.89816
-3.75669
-3.62592
-3.50635
-3.39773
-3.29925
-3.20886
-3.12266
-3.03367
-2.92993
-2.79303
-2.59745
-2.30884
-1.88701
-1.28993
-0.483296
0.549695
1.80003
3.23074
4.78168
6.38031
7.95455
9.44317
10.801
12
13.027
13.8807
14.5685
15.1026
15.4968
15.7657
15.9198
15.9751
15.9079
-8.02183
-8.03156
-8.05469
-8.07991
-8.10185
-8.12048
-8.1365
-8.15036
-8.1625
-8.17337
-8.18335
-8.19271
-8.20162
-8.2101
-8.21814
-8.22572
-8.23283
-8.23943
-8.24548
-8.25091
-8.25568
-8.25973
-8.26309
-8.26577
-8.26783
-8.26932
-8.27035
-8.27104
-8.27152
-8.2719
-8.2723
-8.27278
-8.27344
-8.27429
-8.27538
-8.27669
-8.27826
-8.28009
-8.28227
-8.28478
-8.28755
-8.2904
-8.2931
-8.2953
-8.29662
-8.29668
-8.29513
-8.29132
-8.28454
-8.2741
-8.25958
-8.24072
-8.21755
-8.19021
-8.15905
-8.12438
-8.08657
-8.04627
-8.00492
-7.96518
-7.93127
-7.90813
-7.90058
-7.91348
-7.94986
-8.00861
-8.08636
-8.17937
-8.28408
-8.39725
-8.51611
-8.63836
-8.76226
-8.88606
-9.00766
-9.12524
-9.23759
-9.34419
-9.44463
-9.53848
-9.62531
-9.70498
-9.77763
-9.84367
-9.9036
-9.95773
-10.0061
-10.0489
-10.0869
-10.1216
-10.1529
-10.1805
-10.2043
-10.2244
-10.2405
-10.2525
-10.2602
-10.2634
-10.2617
-10.2548
-10.2425
-10.2245
-10.2004
-10.1699
-10.1329
-10.089
-10.0382
-9.98035
-9.91535
-9.84323
-9.76398
-9.67764
-9.58429
-9.48403
-9.37699
-9.26334
-9.1433
-9.01706
-8.88492
-8.74717
-8.60412
-8.45598
-8.303
-8.14528
-7.98305
-7.81643
-7.64569
-7.47091
-7.29238
-7.11016
-6.92455
-6.7357
-6.54403
-6.3499
-6.15385
-5.95643
-5.75832
-5.56023
-5.36296
-5.16735
-4.97442
-4.78526
-4.60111
-4.42332
-4.25317
-4.09198
-3.94062
-3.80023
-3.67121
-3.55392
-3.44803
-3.35249
-3.26478
-3.1807
-3.09294
-2.98953
-2.85218
-2.65573
-2.36631
-1.94453
-1.34961
-0.549057
0.472739
1.70619
3.11476
4.63901
6.2082
7.75223
9.21231
10.545
11.7236
12.7358
13.58
14.2629
14.7955
15.1907
15.4618
15.6189
15.6775
15.6175
-7.98418
-7.99559
-8.02336
-8.053
-8.07803
-8.09871
-8.11601
-8.13057
-8.14302
-8.15398
-8.16397
-8.17332
-8.18224
-8.19078
-8.19897
-8.20684
-8.21438
-8.22155
-8.22833
-8.23464
-8.24046
-8.24575
-8.2505
-8.25473
-8.25849
-8.26181
-8.26479
-8.26752
-8.27012
-8.27269
-8.27537
-8.27823
-8.28137
-8.2848
-8.28858
-8.29266
-8.29704
-8.30165
-8.30644
-8.31126
-8.31594
-8.32023
-8.32383
-8.32628
-8.32705
-8.32553
-8.32112
-8.3131
-8.30076
-8.28344
-8.26076
-8.23261
-8.1993
-8.16135
-8.11943
-8.07409
-8.02588
-7.97557
-7.92464
-7.87614
-7.83549
-7.8092
-7.80273
-7.81922
-7.85856
-7.91809
-7.99491
-8.08634
-8.18961
-8.30197
-8.4208
-8.5436
-8.66793
-8.79145
-8.91224
-9.02885
-9.14053
-9.2469
-9.34765
-9.44234
-9.53046
-9.61178
-9.68652
-9.75522
-9.81862
-9.87722
-9.93122
-9.98071
-10.026
-10.0673
-10.1049
-10.1388
-10.169
-10.1949
-10.2161
-10.2327
-10.2447
-10.2518
-10.2539
-10.2507
-10.2417
-10.2268
-10.2056
-10.1779
-10.1432
-10.1015
-10.0525
-9.99636
-9.93274
-9.86192
-9.78376
-9.69851
-9.60609
-9.50674
-9.40039
-9.28744
-9.16788
-9.04221
-8.91045
-8.77321
-8.63049
-8.48284
-8.33018
-8.17303
-8.01124
-7.84531
-7.6751
-7.50107
-7.32308
-7.14163
-6.95664
-6.76859
-6.5776
-6.38424
-6.18889
-5.99219
-5.79475
-5.59729
-5.40063
-5.20556
-5.01319
-4.82449
-4.64092
-4.4637
-4.29443
-4.13431
-3.98462
-3.84623
-3.71972
-3.60507
-3.5018
-3.40828
-3.3218
-3.23757
-3.14845
-3.04201
-2.90062
-2.69891
-2.40391
-1.97682
-1.37924
-0.580599
0.432617
1.65005
3.03473
4.52842
6.06238
7.56982
8.99483
10.2966
11.4499
12.4431
13.2746
13.9501
14.4797
14.875
15.1482
15.309
15.3721
15.3207
-7.95402
-7.9665
-7.99793
-8.031
-8.05828
-8.0803
-8.09831
-8.11311
-8.12553
-8.13634
-8.14617
-8.15538
-8.16419
-8.1727
-8.181
-8.18912
-8.19707
-8.2048
-8.21231
-8.21952
-8.22644
-8.23303
-8.23931
-8.24527
-8.25094
-8.25635
-8.26157
-8.26666
-8.27175
-8.27692
-8.28229
-8.28797
-8.29404
-8.30056
-8.30757
-8.31502
-8.32288
-8.33101
-8.33924
-8.34732
-8.35491
-8.36159
-8.36688
-8.37018
-8.37084
-8.3681
-8.36125
-8.34949
-8.33208
-8.3084
-8.27816
-8.24148
-8.19895
-8.15145
-8.09995
-8.04514
-7.98764
-7.92846
-7.86972
-7.81536
-7.77126
-7.74344
-7.73593
-7.74912
-7.78152
-7.83219
-7.90032
-7.98422
-8.08168
-8.19015
-8.30695
-8.42923
-8.55369
-8.6772
-8.79769
-8.91399
-9.02556
-9.13214
-9.23356
-9.32955
-9.41994
-9.5047
-9.58401
-9.65811
-9.72736
-9.79211
-9.85282
-9.90986
-9.96276
-10.0107
-10.0538
-10.0927
-10.1276
-10.1581
-10.184
-10.2051
-10.2214
-10.2326
-10.2386
-10.239
-10.2336
-10.2219
-10.2038
-10.1788
-10.1468
-10.1075
-10.0608
-10.0065
-9.9446
-9.87521
-9.79844
-9.7144
-9.62317
-9.52481
-9.4194
-9.30716
-9.18833
-9.0632
-8.93207
-8.79528
-8.65311
-8.50588
-8.35377
-8.19708
-8.03592
-7.87055
-7.70105
-7.52767
-7.35045
-7.1697
-6.98547
-6.79811
-6.60787
-6.4152
-6.22053
-6.02451
-5.82766
-5.63083
-5.43475
-5.24039
-5.04877
-4.86105
-4.67865
-4.5029
-4.33545
-4.17753
-4.03041
-3.89482
-3.77101
-3.65874
-3.55697
-3.46372
-3.3759
-3.28864
-3.19478
-3.0819
-2.93257
-2.72139
-2.41607
-1.97899
-1.37442
-0.57432
0.432449
1.634
2.99268
4.45166
5.94497
7.40985
8.79397
10.0597
11.1832
12.1537
12.9694
13.6354
14.1602
14.5546
14.8294
14.9939
15.0621
15.0199
-7.93572
-7.94848
-7.98201
-8.01716
-8.04559
-8.06805
-8.08605
-8.10058
-8.11258
-8.12297
-8.13241
-8.1413
-8.14988
-8.15828
-8.16664
-8.17497
-8.18329
-8.19158
-8.19981
-8.20795
-8.21597
-8.22387
-8.23165
-8.2393
-8.24685
-8.2543
-8.26173
-8.26918
-8.27675
-8.28455
-8.29269
-8.30127
-8.31039
-8.32012
-8.33048
-8.34141
-8.35285
-8.36458
-8.37635
-8.3878
-8.39847
-8.40777
-8.41508
-8.41965
-8.4207
-8.4174
-8.4089
-8.39439
-8.37312
-8.34452
-8.30838
-8.26488
-8.21473
-8.15895
-8.09871
-8.03522
-7.96993
-7.90483
-7.8429
-7.78794
-7.74361
-7.71279
-7.69799
-7.70092
-7.72213
-7.76161
-7.81883
-7.89262
-7.98109
-8.08157
-8.19111
-8.30695
-8.42631
-8.54643
-8.66487
-8.78026
-8.89201
-8.9999
-9.10354
-9.20269
-9.29734
-9.38756
-9.4733
-9.55435
-9.63048
-9.70172
-9.76838
-9.83091
-9.88903
-9.9423
-9.99083
-10.0349
-10.0748
-10.1102
-10.141
-10.1669
-10.1878
-10.2036
-10.2139
-10.2183
-10.2167
-10.2086
-10.1938
-10.172
-10.143
-10.1064
-10.0621
-10.0099
-9.95002
-9.88229
-9.8071
-9.72442
-9.63453
-9.53728
-9.43296
-9.32155
-9.20359
-9.07912
-8.94875
-8.81252
-8.67106
-8.52433
-8.37292
-8.21675
-8.05634
-7.89154
-7.72285
-7.55009
-7.37376
-7.19367
-7.01031
-6.82367
-6.63427
-6.44235
-6.2485
-6.05326
-5.85724
-5.66131
-5.46621
-5.27307
-5.08284
-4.89687
-4.71653
-4.54327
-4.37862
-4.22378
-4.0797
-3.94695
-3.82515
-3.71392
-3.61147
-3.51593
-3.4237
-3.33039
-3.22843
-3.10589
-2.94486
-2.72026
-2.40014
-1.9491
-1.33377
-0.529555
0.472212
1.65708
2.98711
4.40692
5.85455
7.27153
8.60995
9.83507
10.9252
11.8699
12.6673
13.3215
13.8401
14.2322
14.508
14.6758
14.7492
14.7161
-7.93077
-7.94407
-7.97781
-8.01315
-8.04143
-8.06332
-8.08047
-8.09405
-8.10517
-8.1148
-8.12362
-8.13203
-8.1403
-8.14859
-8.15701
-8.1656
-8.17436
-8.18327
-8.1923
-8.20142
-8.21062
-8.21984
-8.22906
-8.23826
-8.24744
-8.2566
-8.26579
-8.27509
-8.28463
-8.29451
-8.3049
-8.31588
-8.32759
-8.34007
-8.35334
-8.36734
-8.38194
-8.39691
-8.41192
-8.42652
-8.44014
-8.45209
-8.46161
-8.46782
-8.46983
-8.4667
-8.45753
-8.44146
-8.4178
-8.38598
-8.34583
-8.29751
-8.24175
-8.17962
-8.1127
-8.04291
-7.97259
-7.90414
-7.84031
-7.7839