/*--------------------------------*- C++ -*----------------------------------*\
| =========                 |                                                 |
| \\      /  F ield         | OpenFOAM: The Open Source CFD Toolbox           |
|  \\    /   O peration     | Version:  2112                                  |
|   \\  /    A nd           | Website:  www.openfoam.com                      |
|    \\/     M anipulation  |                                                 |
\*---------------------------------------------------------------------------*/
FoamFile
{
    version     2.0;
    format      ascii;
    arch        "LSB;label=32;scalar=64";
    class       surfaceScalarField;
    location    "200";
    object      phi;
}
// * * * * * * * * * * * * * * * * * * * * * * * * * * * * * * * * * * * * * //

dimensions      [0 3 -1 0 0 0 0];

oriented        oriented;

internalField   nonuniform List<scalar> 
24170
(
3.05851e-06
1.29892e-07
2.9173e-06
1.41217e-07
2.79083e-06
1.26481e-07
2.67703e-06
1.13807e-07
2.57511e-06
1.0193e-07
2.48524e-06
8.98679e-08
2.40701e-06
7.82438e-08
2.33938e-06
6.76356e-08
2.28093e-06
5.84517e-08
2.23012e-06
5.08176e-08
2.18586e-06
4.42642e-08
2.14742e-06
3.84429e-08
2.11428e-06
3.31408e-08
2.0861e-06
2.81874e-08
2.06276e-06
2.33469e-08
2.04469e-06
1.80725e-08
2.03303e-06
1.16579e-08
-1.34829e-09
2.03438e-06
3.47339e-06
7.37517e-08
3.50548e-06
1.09132e-07
3.52174e-06
1.10232e-07
3.52554e-06
1.1001e-07
3.51947e-06
1.08003e-07
3.5063e-06
1.03051e-07
3.48822e-06
9.63306e-08
3.46684e-06
8.90133e-08
3.44361e-06
8.16914e-08
3.41978e-06
7.46539e-08
3.39605e-06
6.79983e-08
3.37283e-06
6.16616e-08
3.35043e-06
5.55533e-08
3.32907e-06
4.9543e-08
3.309e-06
4.34278e-08
3.29044e-06
3.66329e-08
3.27343e-06
2.86727e-08
1.71314e-08
3.25495e-06
3.6823e-06
5.39682e-08
3.69982e-06
9.16116e-08
3.71388e-06
9.61822e-08
3.72609e-06
9.77984e-08
3.73612e-06
9.79759e-08
3.74381e-06
9.53649e-08
3.7493e-06
9.08514e-08
3.75275e-06
8.55585e-08
3.75445e-06
7.99974e-08
3.75472e-06
7.43921e-08
3.75387e-06
6.88493e-08
3.75216e-06
6.33693e-08
3.74982e-06
5.79029e-08
3.74702e-06
5.23451e-08
3.74392e-06
4.65277e-08
3.74055e-06
4.00103e-08
3.73657e-06
3.26522e-08
2.34203e-08
3.73028e-06
3.93669e-06
4.26685e-08
3.94885e-06
7.94507e-08
3.95828e-06
8.67638e-08
3.96668e-06
8.93963e-08
3.97433e-06
9.03349e-08
3.98111e-06
8.85869e-08
3.98706e-06
8.49093e-08
3.99224e-06
8.03838e-08
3.99671e-06
7.55287e-08
4.00055e-06
7.0551e-08
4.00387e-06
6.55309e-08
4.00676e-06
6.04874e-08
4.00929e-06
5.53781e-08
4.01152e-06
5.01185e-08
4.01348e-06
4.45709e-08
4.01502e-06
3.84667e-08
4.0159e-06
3.17794e-08
2.42217e-08
4.0151e-06
4.21532e-06
3.44711e-08
4.22548e-06
6.93019e-08
4.23351e-06
7.87301e-08
4.24062e-06
8.22911e-08
4.24719e-06
8.37633e-08
4.25318e-06
8.26027e-08
4.25858e-06
7.95107e-08
4.26347e-06
7.54942e-08
4.26792e-06
7.10819e-08
4.272e-06
6.64788e-08
4.27576e-06
6.1773e-08
4.27925e-06
5.69921e-08
4.28252e-06
5.21109e-08
4.28558e-06
4.70632e-08
4.2884e-06
4.17546e-08
4.29083e-06
3.6041e-08
4.29265e-06
2.99604e-08
2.35544e-08
4.29332e-06
4.51549e-06
2.80676e-08
4.52439e-06
6.04109e-08
4.53184e-06
7.12792e-08
4.53852e-06
7.56117e-08
4.54476e-06
7.75301e-08
4.55049e-06
7.68729e-08
4.55571e-06
7.42932e-08
4.56049e-06
7.07183e-08
4.5649e-06
6.66757e-08
4.56901e-06
6.23766e-08
4.57286e-06
5.79258e-08
4.57649e-06
5.33616e-08
4.57992e-06
4.86803e-08
4.58315e-06
4.38379e-08
4.58612e-06
3.87844e-08
4.58871e-06
3.34598e-08
4.59072e-06
2.79463e-08
2.23944e-08
4.59188e-06
4.83782e-06
2.29728e-08
4.84575e-06
5.24834e-08
4.85282e-06
6.42073e-08
4.8593e-06
6.91293e-08
4.86544e-06
7.13972e-08
4.87113e-06
7.11804e-08
4.87636e-06
6.9068e-08
4.88118e-06
6.59044e-08
4.88565e-06
6.22065e-08
4.88983e-06
5.81942e-08
4.89377e-06
5.3987e-08
4.8975e-06
4.96371e-08
4.90102e-06
4.51627e-08
4.90431e-06
4.05449e-08
4.90733e-06
3.57716e-08
4.90995e-06
3.08391e-08
4.91205e-06
2.58498e-08
2.0968e-08
4.91348e-06
5.18366e-06
1.88972e-08
5.19076e-06
4.53874e-08
5.19751e-06
5.74623e-08
5.20383e-06
6.2805e-08
5.20992e-06
6.53171e-08
5.21564e-06
6.54641e-08
5.22094e-06
6.37701e-08
5.22585e-06
6.09904e-08
5.23044e-06
5.76222e-08
5.23474e-06
5.38937e-08
5.2388e-06
4.99346e-08
5.24263e-06
4.58123e-08
5.24623e-06
4.15638e-08
5.24958e-06
3.71961e-08
5.25263e-06
3.27255e-08
5.25528e-06
2.81839e-08
5.25746e-06
2.36764e-08
1.93471e-08
5.25908e-06
5.55462e-06
1.56168e-08
5.56096e-06
3.90469e-08
5.5674e-06
5.10287e-08
5.57358e-06
5.66287e-08
5.5796e-06
5.92935e-08
5.58535e-06
5.97234e-08
5.59072e-06
5.83937e-08
5.59575e-06
5.59663e-08
5.60046e-06
5.29119e-08
5.60489e-06
4.94655e-08
5.60907e-06
4.57625e-08
5.613e-06
4.18845e-08
5.61668e-06
3.78838e-08
5.62009e-06
3.37897e-08
5.62318e-06
2.96385e-08
5.62588e-06
2.5482e-08
5.62814e-06
2.14179e-08
1.75621e-08
5.62993e-06
5.95244e-06
1.29525e-08
5.95809e-06
3.34027e-08
5.96421e-06
4.49134e-08
5.97024e-06
5.06013e-08
5.9762e-06
5.33392e-08
5.98195e-06
5.39758e-08
5.98739e-06
5.29559e-08
5.99251e-06
5.08481e-08
5.99734e-06
4.80904e-08
6.00188e-06
4.49223e-08
6.00616e-06
4.1483e-08
6.01019e-06
3.78643e-08
6.01394e-06
3.41307e-08
6.0174e-06
3.03286e-08
6.02054e-06
2.65066e-08
6.0233e-06
2.27256e-08
6.02564e-06
1.90712e-08
1.56325e-08
6.02758e-06
6.379e-06
1.07634e-08
6.38402e-06
2.83873e-08
6.38982e-06
3.91208e-08
6.3957e-06
4.47233e-08
6.40158e-06
4.74608e-08
6.40732e-06
4.82333e-08
6.41281e-06
4.74688e-08
6.41802e-06
4.56488e-08
6.42294e-06
4.31732e-08
6.42758e-06
4.02796e-08
6.43196e-06
3.71105e-08
6.43606e-06
3.3764e-08
6.43988e-06
3.03138e-08
6.44339e-06
2.68166e-08
6.44657e-06
2.33287e-08
6.44939e-06
1.99113e-08
6.45182e-06
1.66378e-08
1.35738e-08
6.45388e-06
5.74241e-06
9.18713e-09
5.7462e-06
2.45982e-08
5.75085e-06
3.44782e-08
5.75571e-06
3.98723e-08
5.76061e-06
4.25589e-08
5.76545e-06
4.33968e-08
5.77012e-06
4.28035e-08
5.77457e-06
4.12014e-08
5.77879e-06
3.89531e-08
5.78278e-06
3.62891e-08
5.78654e-06
3.33523e-08
5.79007e-06
3.02446e-08
5.79334e-06
2.70425e-08
5.79635e-06
2.38105e-08
5.79907e-06
2.06045e-08
5.8015e-06
1.74858e-08
5.80362e-06
1.45148e-08
1.17451e-08
5.80545e-06
6.99971e-06
7.62859e-09
7.00364e-06
2.06716e-08
7.00866e-06
2.9462e-08
7.01406e-06
3.44796e-08
7.0196e-06
3.7027e-08
7.02511e-06
3.78814e-08
7.03048e-06
3.74377e-08
7.03563e-06
3.60556e-08
7.04053e-06
3.40529e-08
7.04518e-06
3.16477e-08
7.04955e-06
2.89808e-08
7.05364e-06
2.6153e-08
7.05744e-06
2.32448e-08
7.06094e-06
2.032e-08
7.0641e-06
1.74371e-08
7.06694e-06
1.46493e-08
7.06945e-06
1.20094e-08
9.55287e-09
7.07164e-06
8.53238e-06
6.09663e-09
8.53638e-06
1.66724e-08
8.54172e-06
2.41289e-08
8.54763e-06
2.85686e-08
8.5538e-06
3.08624e-08
8.56002e-06
3.16617e-08
8.56614e-06
3.13273e-08
8.57204e-06
3.01538e-08
8.57769e-06
2.84094e-08
8.58305e-06
2.62899e-08
8.5881e-06
2.39304e-08
8.59283e-06
2.14268e-08
8.59722e-06
1.88578e-08
8.60125e-06
1.62855e-08
8.60492e-06
1.37645e-08
8.60823e-06
1.13419e-08
8.61118e-06
9.05846e-09
6.93989e-09
8.6138e-06
1.04007e-05
4.59517e-09
1.04047e-05
1.26475e-08
1.04103e-05
1.85378e-08
1.04167e-05
2.21746e-08
1.04235e-05
2.40729e-08
1.04305e-05
2.47263e-08
1.04374e-05
2.44398e-08
1.04441e-05
2.34492e-08
1.04505e-05
2.19641e-08
1.04567e-05
2.01534e-08
1.04625e-05
1.81339e-08
1.04679e-05
1.59974e-08
1.04729e-05
1.38107e-08
1.04776e-05
1.16345e-08
1.04818e-05
9.51279e-09
1.04857e-05
7.4879e-09
1.04892e-05
5.58811e-09
3.83188e-09
1.04923e-05
1.26783e-05
3.1165e-09
1.26823e-05
8.60291e-09
1.26881e-05
1.27253e-08
1.2695e-05
1.53251e-08
1.27024e-05
1.66626e-08
1.27101e-05
1.70596e-08
1.27178e-05
1.67462e-08
1.27253e-05
1.58953e-08
1.27326e-05
1.46609e-08
1.27396e-05
1.31698e-08
1.27462e-05
1.15204e-08
1.27524e-05
9.78429e-09
1.27582e-05
8.02177e-09
1.27636e-05
6.27789e-09
1.27685e-05
4.59272e-09
1.2773e-05
2.9942e-09
1.27771e-05
1.50734e-09
1.38226e-10
1.27808e-05
1.54547e-05
1.63423e-09
1.54588e-05
4.48093e-09
1.54649e-05
6.65212e-09
1.54722e-05
7.98978e-09
1.54803e-05
8.58773e-09
1.54887e-05
8.60701e-09
1.54973e-05
8.18262e-09
1.55058e-05
7.42086e-09
1.5514e-05
6.41656e-09
1.5522e-05
5.25127e-09
1.55295e-05
3.99099e-09
1.55366e-05
2.68684e-09
1.55432e-05
1.3805e-09
1.55494e-05
1.04946e-10
1.55551e-05
-1.11302e-09
1.55604e-05
-2.25327e-09
1.55652e-05
-3.30094e-09
-4.25282e-09
1.55696e-05
1.88392e-05
8.47586e-11
1.88436e-05
1.09044e-10
1.88501e-05
1.12556e-10
1.88581e-05
-3.05519e-11
1.88671e-05
-3.43711e-10
1.88765e-05
-8.18194e-10
1.88861e-05
-1.42882e-09
1.88957e-05
-2.14452e-09
1.8905e-05
-2.93318e-09
1.89141e-05
-3.76522e-09
1.89227e-05
-4.61396e-09
1.89308e-05
-5.45627e-09
1.89385e-05
-6.27201e-09
1.89456e-05
-7.04468e-09
1.89523e-05
-7.76082e-09
1.89584e-05
-8.4102e-09
1.89641e-05
-8.986e-09
-9.48869e-09
1.89694e-05
2.29651e-05
-1.6912e-09
2.29702e-05
-4.94596e-09
2.29778e-05
-7.45944e-09
2.2987e-05
-9.3138e-09
2.29974e-05
-1.06764e-08
2.30083e-05
-1.17225e-08
2.30194e-05
-1.25525e-08
2.30305e-05
-1.32221e-08
2.30413e-05
-1.37694e-08
2.30518e-05
-1.42281e-08
2.30618e-05
-1.46159e-08
2.30713e-05
-1.49447e-08
2.30803e-05
-1.52171e-08
2.30887e-05
-1.5437e-08
2.30965e-05
-1.56036e-08
2.31038e-05
-1.57183e-08
2.31106e-05
-1.57803e-08
-1.57946e-08
2.31169e-05
1.68122e-05
-3.16503e-09
1.68163e-05
-9.03839e-09
1.68223e-05
-1.3443e-08
1.68294e-05
-1.64601e-08
1.68372e-05
-1.84797e-08
1.68454e-05
-1.98544e-08
1.68536e-05
-2.07749e-08
1.68617e-05
-2.13473e-08
1.68696e-05
-2.16734e-08
1.68772e-05
-2.18264e-08
1.68845e-05
-2.18626e-08
1.68914e-05
-2.18075e-08
1.68978e-05
-2.16872e-08
1.69039e-05
-2.15102e-08
1.69096e-05
-2.12909e-08
1.69149e-05
-2.10299e-08
1.69199e-05
-2.07363e-08
-2.04101e-08
1.69245e-05
1.46361e-05
-4.74083e-09
1.46404e-05
-1.33151e-08
1.46464e-05
-1.94403e-08
1.46533e-05
-2.33345e-08
1.46606e-05
-2.57835e-08
1.46681e-05
-2.73417e-08
1.46756e-05
-2.82421e-08
1.46829e-05
-2.86456e-08
1.46899e-05
-2.87066e-08
1.46966e-05
-2.85476e-08
1.4703e-05
-2.82389e-08
1.47091e-05
-2.7829e-08
1.47147e-05
-2.73484e-08
1.472e-05
-2.6822e-08
1.4725e-05
-2.62624e-08
1.47297e-05
-2.56805e-08
1.4734e-05
-2.50799e-08
-2.44676e-08
1.47381e-05
1.2742e-05
-6.57609e-09
1.27467e-05
-1.80872e-08
1.2753e-05
-2.57032e-08
1.27598e-05
-3.01247e-08
1.27668e-05
-3.2782e-08
1.27739e-05
-3.43838e-08
1.27808e-05
-3.51544e-08
1.27874e-05
-3.53065e-08
1.27938e-05
-3.5063e-08
1.27998e-05
-3.45745e-08
1.28055e-05
-3.39259e-08
1.28109e-05
-3.31746e-08
1.28159e-05
-3.23605e-08
1.28206e-05
-3.15151e-08
1.2825e-05
-3.06533e-08
1.28291e-05
-2.97885e-08
1.28329e-05
-2.89231e-08
-2.80636e-08
1.28365e-05
1.10932e-05
-8.8573e-09
1.10988e-05
-2.36287e-08
1.11054e-05
-3.23393e-08
1.11122e-05
-3.68874e-08
1.11189e-05
-3.95615e-08
1.11256e-05
-4.10805e-08
1.11321e-05
-4.16124e-08
1.11383e-05
-4.14468e-08
1.11441e-05
-4.0868e-08
1.11495e-05
-4.00413e-08
1.11547e-05
-3.90557e-08
1.11595e-05
-3.79743e-08
1.1164e-05
-3.68477e-08
1.11682e-05
-3.57064e-08
1.11721e-05
-3.45731e-08
1.11757e-05
-3.34545e-08
1.11792e-05
-3.23586e-08
-3.12825e-08
1.11824e-05
9.65818e-06
-1.182e-08
9.66476e-06
-3.02031e-08
9.67175e-06
-3.93255e-08
9.67848e-06
-4.36174e-08
9.6851e-06
-4.61761e-08
9.69152e-06
-4.74975e-08
9.6976e-06
-4.76946e-08
9.70332e-06
-4.71648e-08
9.70869e-06
-4.62349e-08
9.71372e-06
-4.5067e-08
9.71842e-06
-4.3748e-08
9.72279e-06
-4.23477e-08
9.72687e-06
-4.09207e-08
9.73067e-06
-3.9504e-08
9.73422e-06
-3.81165e-08
9.73753e-06
-3.67696e-08
9.74064e-06
-3.54669e-08
-3.42028e-08
9.74356e-06
8.40927e-06
-1.57337e-08
8.41715e-06
-3.80855e-08
8.42442e-06
-4.65887e-08
8.43113e-06
-5.03273e-08
8.43766e-06
-5.27049e-08
8.4439e-06
-5.37315e-08
8.44973e-06
-5.35242e-08
8.45517e-06
-5.25987e-08
8.46024e-06
-5.13024e-08
8.46496e-06
-4.97842e-08
8.46934e-06
-4.81272e-08
8.4734e-06
-4.64072e-08
8.47717e-06
-4.46838e-08
8.48066e-06
-4.29964e-08
8.48391e-06
-4.13647e-08
8.48694e-06
-3.98001e-08
8.48978e-06
-3.83048e-08
-3.68613e-08
8.49244e-06
7.32254e-06
-2.09915e-08
7.33197e-06
-4.75062e-08
7.33962e-06
-5.42417e-08
7.34653e-06
-5.72378e-08
7.3532e-06
-5.93653e-08
7.35946e-06
-5.99936e-08
7.36526e-06
-5.93193e-08
7.37062e-06
-5.796e-08
7.37559e-06
-5.62665e-08
7.38017e-06
-5.4369e-08
7.3844e-06
-5.23513e-08
7.38828e-06
-5.02892e-08
7.39186e-06
-4.82524e-08
7.39514e-06
-4.62782e-08
7.39817e-06
-4.43907e-08
7.40097e-06
-4.26036e-08
7.40359e-06
-4.09191e-08
-3.93129e-08
7.40604e-06
6.37791e-06
-2.88374e-08
6.38895e-06
-5.85421e-08
6.39774e-06
-6.30333e-08
6.40572e-06
-6.52089e-08
6.41322e-06
-6.68674e-08
6.42009e-06
-6.68635e-08
6.42634e-06
-6.55659e-08
6.43204e-06
-6.36542e-08
6.43723e-06
-6.14575e-08
6.44194e-06
-5.90825e-08
6.44621e-06
-5.66099e-08
6.45004e-06
-5.41219e-08
6.45348e-06
-5.16924e-08
6.45656e-06
-4.93537e-08
6.45931e-06
-4.71362e-08
6.46178e-06
-4.50772e-08
6.46402e-06
-4.31611e-08
-4.13422e-08
6.46606e-06
5.5605e-06
-4.38743e-08
5.57531e-06
-7.33526e-08
5.58809e-06
-7.58075e-08
5.59967e-06
-7.6789e-08
5.60996e-06
-7.71557e-08
5.61888e-06
-7.57745e-08
5.62653e-06
-7.32182e-08
5.63306e-06
-7.01788e-08
5.63854e-06
-6.69397e-08
5.64306e-06
-6.3595e-08
5.64667e-06
-6.02229e-08
5.64946e-06
-5.69088e-08
5.65151e-06
-5.37424e-08
5.65291e-06
-5.07458e-08
5.65372e-06
-4.79475e-08
5.65408e-06
-4.54357e-08
5.6541e-06
-4.31776e-08
-4.13513e-08
5.65411e-06
4.87747e-06
-9.37408e-08
4.90772e-06
-1.03599e-07
4.92886e-06
-9.69396e-08
4.94264e-06
-9.05643e-08
4.95027e-06
-8.47809e-08
4.95297e-06
-7.84773e-08
4.95176e-06
-7.20025e-08
4.94739e-06
-6.58065e-08
4.94048e-06
-6.0026e-08
4.93156e-06
-5.46715e-08
4.92107e-06
-4.97389e-08
4.90941e-06
-4.52417e-08
4.89688e-06
-4.12112e-08
4.88386e-06
-3.773e-08
4.87072e-06
-3.48061e-08
4.85763e-06
-3.23365e-08
4.8447e-06
-3.02501e-08
-2.89737e-08
4.83233e-06
4.10894e-06
4.00534e-06
3.9084e-06
3.81783e-06
3.73305e-06
3.65458e-06
3.58257e-06
3.51677e-06
3.45674e-06
3.40207e-06
3.35233e-06
3.30709e-06
3.26588e-06
3.22815e-06
3.19334e-06
3.16101e-06
3.13076e-06
3.10179e-06
-1.93174e-08
1.93684e-08
-4.2782e-08
2.35776e-08
-5.74853e-08
1.47719e-08
-4.91912e-08
-8.18896e-09
-1.64351e-08
-3.27126e-08
3.29612e-08
-4.93027e-08
9.03978e-08
-5.74269e-08
1.50336e-07
-5.98683e-08
2.09474e-07
-5.91416e-08
2.66179e-07
-5.66443e-08
3.19219e-07
-5.30448e-08
3.68079e-07
-4.88034e-08
4.12351e-07
-4.42778e-08
4.5209e-07
-3.96864e-08
4.87219e-07
-3.51362e-08
5.17956e-07
-3.06886e-08
5.44324e-07
-2.638e-08
5.66621e-07
-2.22502e-08
5.8492e-07
-1.83078e-08
5.99562e-07
-1.45901e-08
6.10622e-07
-1.10666e-08
6.18356e-07
-7.67158e-09
6.2276e-07
-4.39906e-09
6.23932e-07
-1.09648e-09
6.2172e-07
2.22501e-09
6.16336e-07
5.46823e-09
6.07862e-07
8.48723e-09
5.96864e-07
1.10874e-08
5.83644e-07
1.32352e-08
5.68798e-07
1.4937e-08
5.52603e-07
1.61976e-08
5.35687e-07
1.70039e-08
5.1833e-07
1.73531e-08
5.01163e-07
1.7247e-08
4.84432e-07
1.67036e-08
4.68723e-07
1.57798e-08
4.54174e-07
1.45092e-08
4.41259e-07
1.29864e-08
4.29915e-07
1.13013e-08
4.2043e-07
9.56035e-09
4.12497e-07
7.88717e-09
4.06172e-07
6.40109e-09
4.00927e-07
5.1904e-09
3.96667e-07
4.32714e-09
3.92766e-07
3.82636e-09
3.89131e-07
3.68522e-09
3.85174e-07
3.87001e-09
3.80858e-07
4.34994e-09
3.75709e-07
5.05113e-09
3.69832e-07
5.90272e-09
3.62925e-07
6.80788e-09
3.55283e-07
7.66334e-09
3.46861e-07
8.32847e-09
3.38189e-07
8.66977e-09
3.29505e-07
8.56109e-09
3.21609e-07
7.87149e-09
3.14913e-07
6.57071e-09
3.10202e-07
4.67673e-09
3.07753e-07
2.30761e-09
3.07726e-07
-1.63608e-12
3.0924e-07
-1.63532e-09
3.11549e-07
-2.32977e-09
3.13517e-07
-2.08937e-09
3.14455e-07
-9.6429e-10
3.12637e-07
1.7294e-09
3.064e-07
6.2023e-09
2.95039e-07
1.12925e-08
2.80153e-07
1.48571e-08
2.63936e-07
1.60518e-08
2.41296e-07
2.26891e-08
1.97618e-07
4.33565e-08
1.22417e-07
7.53927e-08
1.64149e-09
1.20387e-07
-1.79194e-07
1.81109e-07
-4.214e-07
2.41941e-07
-7.0755e-07
2.86398e-07
-1.02211e-06
3.14439e-07
-1.34648e-06
3.24508e-07
-1.66453e-06
3.17897e-07
-1.9623e-06
2.97821e-07
-2.23129e-06
2.68845e-07
-2.46698e-06
2.3568e-07
-2.66899e-06
2.01833e-07
-2.83883e-06
1.69802e-07
-2.98009e-06
1.41096e-07
-3.09709e-06
1.16924e-07
-3.19429e-06
9.70244e-08
-3.27516e-06
8.07117e-08
-3.34306e-06
6.76558e-08
-3.40051e-06
5.72096e-08
-3.44973e-06
4.90521e-08
-3.4925e-06
4.27102e-08
-3.53027e-06
3.77608e-08
-3.56425e-06
3.40055e-08
-3.59526e-06
3.10251e-08
-3.62394e-06
2.87175e-08
-3.65075e-06
2.68161e-08
-3.67601e-06
2.52799e-08
-3.69987e-06
2.38408e-08
-3.72242e-06
2.25331e-08
-3.74391e-06
2.14293e-08
-3.76434e-06
2.03702e-08
-3.78378e-06
1.93343e-08
-3.80241e-06
1.84843e-08
-3.82017e-06
1.75818e-08
-3.83685e-06
1.64583e-08
-3.8525e-06
1.53938e-08
-3.86701e-06
1.42111e-08
-3.88033e-06
1.30133e-08
-3.89272e-06
1.2056e-08
-3.9041e-06
1.10549e-08
-3.91444e-06
9.97816e-09
-3.92365e-06
8.86916e-09
-3.93165e-06
7.62943e-09
-3.9383e-06
6.30561e-09
-3.94363e-06
4.9506e-09
-3.94761e-06
3.62736e-09
-3.95024e-06
2.26679e-09
-3.95143e-06
8.49091e-10
-3.95128e-06
-5.31137e-10
-3.94993e-06
-1.75125e-09
-3.94761e-06
-2.81138e-09
-3.94429e-06
-3.81589e-09
-3.9401e-06
-4.74151e-09
-3.9352e-06
-5.3979e-09
-3.9299e-06
-5.84425e-09
-3.92405e-06
-6.31009e-09
-3.91779e-06
-6.77308e-09
-3.91113e-06
-7.10316e-09
-3.90412e-06
-7.50975e-09
-3.89692e-06
-7.61663e-09
-3.88981e-06
-7.60976e-09
-3.88248e-06
-7.71356e-09
-3.87501e-06
-7.93017e-09
-3.86703e-06
-8.29614e-09
-3.85906e-06
-8.32333e-09
-3.85108e-06
-8.14065e-09
-3.84333e-06
-7.83576e-09
-3.83598e-06
-7.16064e-09
-3.82957e-06
-6.10694e-09
-3.82536e-06
-3.78233e-09
-3.82463e-06
-3.18305e-10
-3.82837e-06
4.1387e-09
-3.83764e-06
9.65217e-09
-3.85321e-06
1.59691e-08
-3.87442e-06
2.16315e-08
-3.90034e-06
2.63953e-08
-3.92975e-06
2.99449e-08
-3.96003e-06
3.09029e-08
-3.98867e-06
2.93664e-08
-4.01251e-06
2.4688e-08
-4.02773e-06
1.62255e-08
-4.03249e-06
5.9096e-09
-4.026e-06
-5.12073e-09
-4.00706e-06
-1.74289e-08
-3.97404e-06
-3.12588e-08
-3.9269e-06
-4.52187e-08
-3.86584e-06
-5.88865e-08
-3.79186e-06
-7.16939e-08
-3.7066e-06
-8.27791e-08
-3.61062e-06
-9.34602e-08
-3.50206e-06
-1.0594e-07
-3.37708e-06
-1.22407e-07
-3.22988e-06
-1.44605e-07
-3.05382e-06
-1.73577e-07
-2.8425e-06
-2.08871e-07
-2.59142e-06
-2.48716e-07
-2.30206e-06
-2.87023e-07
-1.98116e-06
-3.1862e-07
-1.63665e-06
-3.42217e-07
-1.28038e-06
-3.53962e-07
-9.13858e-07
-3.64215e-07
-5.08893e-07
-4.02732e-07
-5.17626e-08
-4.55092e-07
4.06261e-07
-4.56371e-07
8.21118e-07
-4.13391e-07
1.18708e-06
-3.64717e-07
1.49943e-06
-3.11198e-07
1.74613e-06
-2.45657e-07
-1.1592e-07
1.86307e-06
1.97761e-09
1.74796e-08
8.51077e-09
1.7228e-08
3.81702e-08
-1.4791e-08
8.63777e-08
-5.63249e-08
1.40148e-07
-8.64583e-08
1.92326e-07
-1.01448e-07
2.40613e-07
-1.05704e-07
2.84638e-07
-1.03869e-07
3.24416e-07
-9.89134e-08
3.60236e-07
-9.24415e-08
3.92442e-07
-8.52459e-08
4.21385e-07
-7.77235e-08
4.47214e-07
-7.01021e-08
4.70077e-07
-6.25274e-08
4.90032e-07
-5.5088e-08
5.07206e-07
-4.78407e-08
5.21651e-07
-4.08243e-08
5.33486e-07
-3.40646e-08
5.42761e-07
-2.75824e-08
5.49588e-07
-2.13927e-08
5.5403e-07
-1.5505e-08
5.5631e-07
-9.92276e-09
5.56583e-07
-4.66352e-09
5.55251e-07
2.75384e-10
5.52575e-07
4.91253e-09
5.48804e-07
9.28248e-09
5.43919e-07
1.33869e-08
5.37894e-07
1.71637e-08
5.30598e-07
2.05469e-08
5.22109e-07
2.34773e-08
5.12429e-07
2.58907e-08
5.01762e-07
2.77246e-08
4.90184e-07
2.8939e-08
4.77959e-07
2.95188e-08
4.65183e-07
2.94773e-08
4.52133e-07
2.88721e-08
4.38887e-07
2.7745e-08
4.25743e-07
2.61719e-08
4.12781e-07
2.42521e-08
4.00278e-07
2.21054e-08
3.88278e-07
1.98735e-08
3.77023e-07
1.76951e-08
3.66496e-07
1.56979e-08
3.56849e-07
1.40042e-08
3.47947e-07
1.26955e-08
3.39825e-07
1.18231e-08
3.32254e-07
1.13961e-08
3.25205e-07
1.14078e-08
3.18408e-07
1.17932e-08
3.11842e-07
1.24644e-08
3.05298e-07
1.32961e-08
2.98811e-07
1.41465e-08
2.92217e-07
1.4854e-08
2.85579e-07
1.52828e-08
2.78749e-07
1.53046e-08
2.71769e-07
1.48168e-08
2.64435e-07
1.3809e-08
2.56692e-07
1.23729e-08
2.4821e-07
1.06944e-08
2.38847e-07
9.32703e-09
2.28113e-07
9.01891e-09
2.15321e-07
1.04331e-08
1.9922e-07
1.39327e-08
1.78415e-07
1.98196e-08
1.50839e-07
2.92065e-08
1.13912e-07
4.31279e-08
6.25182e-08
6.25151e-08
-1.32977e-08
9.06572e-08
-1.31707e-07
1.34235e-07
-3.04564e-07
1.95475e-07
-5.31504e-07
2.7017e-07
-8.08251e-07
3.52112e-07
-1.12305e-06
4.35124e-07
-1.45448e-06
5.12547e-07
-1.78453e-06
5.71978e-07
-2.09985e-06
6.01745e-07
-2.38517e-06
5.99761e-07
-2.63006e-06
5.69406e-07
-2.83108e-06
5.18895e-07
-2.99025e-06
4.56974e-07
-3.11304e-06
3.91581e-07
-3.20631e-06
3.28901e-07
-3.27712e-06
2.72563e-07
-3.33165e-06
2.24264e-07
-3.37492e-06
1.84282e-07
-3.41023e-06
1.5215e-07
-3.43999e-06
1.26682e-07
-3.46599e-06
1.0657e-07
-3.48929e-06
9.07943e-08
-3.5107e-06
7.84181e-08
-3.53051e-06
6.87556e-08
-3.54907e-06
6.12152e-08
-3.56663e-06
5.53245e-08
-3.58333e-06
5.07184e-08
-3.59927e-06
4.69887e-08
-3.61447e-06
4.39369e-08
-3.62906e-06
4.14182e-08
-3.643e-06
3.92187e-08
-3.65633e-06
3.71572e-08
-3.6691e-06
3.52799e-08
-3.68134e-06
3.36178e-08
-3.69309e-06
3.20622e-08
-3.70434e-06
3.04877e-08
-3.71491e-06
2.89297e-08
-3.72478e-06
2.73037e-08
-3.73403e-06
2.55129e-08
-3.74254e-06
2.36876e-08
-3.75034e-06
2.17737e-08
-3.75752e-06
1.99355e-08
-3.76397e-06
1.82369e-08
-3.76964e-06
1.64374e-08
-3.77457e-06
1.46213e-08
-3.77878e-06
1.27885e-08
-3.78235e-06
1.0904e-08
-3.7853e-06
8.95452e-09
-3.78761e-06
6.95656e-09
-3.78933e-06
5.04748e-09
-3.79052e-06
3.15622e-09
-3.79114e-06
1.17745e-09
-3.79122e-06
-7.61127e-10
-3.7906e-06
-2.72898e-09
-3.78924e-06
-4.57415e-09
-3.78723e-06
-6.27524e-09
-3.78454e-06
-7.88343e-09
-3.78117e-06
-9.21742e-09
-3.77709e-06
-1.03559e-08
-3.77243e-06
-1.14079e-08
-3.76729e-06
-1.23241e-08
-3.7617e-06
-1.31084e-08
-3.75582e-06
-1.37865e-08
-3.74961e-06
-1.42347e-08
-3.74307e-06
-1.45393e-08
-3.73636e-06
-1.48117e-08
-3.72957e-06
-1.50852e-08
-3.7229e-06
-1.52887e-08
-3.7163e-06
-1.51826e-08
-3.71012e-06
-1.45021e-08
-3.7047e-06
-1.32657e-08
-3.70038e-06
-1.13361e-08
-3.69775e-06
-8.43172e-09
-3.69704e-06
-4.13423e-09
-3.69831e-06
1.29982e-09
-3.70116e-06
7.30896e-09
-3.70507e-06
1.38818e-08
-3.70978e-06
2.09994e-08
-3.71553e-06
2.7754e-08
-3.72203e-06
3.32861e-08
-3.72888e-06
3.72749e-08
-3.73608e-06
3.86402e-08
-3.74294e-06
3.68741e-08
-3.74899e-06
3.14811e-08
-3.75357e-06
2.17038e-08
-3.75415e-06
7.50412e-09
-3.74733e-06
-1.07326e-08
-3.73068e-06
-3.27272e-08
-3.70267e-06
-5.77004e-08
-3.6619e-06
-8.42694e-08
-3.60753e-06
-1.11317e-07
-3.53923e-06
-1.37944e-07
-3.45583e-06
-1.63945e-07
-3.35559e-06
-1.91456e-07
-3.23531e-06
-2.23863e-07
-3.09013e-06
-2.65308e-07
-2.91351e-06
-3.18923e-07
-2.69945e-06
-3.8546e-07
-2.44406e-06
-4.62109e-07
-2.14689e-06
-5.43875e-07
-1.81018e-06
-6.2172e-07
-1.4379e-06
-6.88989e-07
-1.03527e-06
-7.4292e-07
-5.94135e-07
-7.93358e-07
-1.14088e-07
-8.4272e-07
3.5651e-07
-8.721e-07
7.76549e-07
-8.7401e-07
1.15986e-06
-8.38711e-07
1.51849e-06
-7.71089e-07
1.84423e-06
-6.89642e-07
2.13012e-06
-5.96283e-07
2.36872e-06
-4.83523e-07
-3.09647e-07
2.56322e-06
6.15123e-09
1.13964e-08
4.25114e-08
-1.90206e-08
1.03457e-07
-7.56931e-08
1.65446e-07
-1.18278e-07
2.16498e-07
-1.37497e-07
2.56391e-07
-1.4132e-07
2.88251e-07
-1.37558e-07
3.1487e-07
-1.30473e-07
3.37927e-07
-1.21965e-07
3.58339e-07
-1.1284e-07
3.76554e-07
-1.03456e-07
3.92835e-07
-9.39909e-08
4.07285e-07
-8.45478e-08
4.19967e-07
-7.51968e-08
4.3087e-07
-6.59872e-08
4.4e-07
-5.69587e-08
4.47322e-07
-4.81443e-08
4.52843e-07
-3.95751e-08
4.56541e-07
-3.12787e-08
4.58441e-07
-2.3281e-08
4.58549e-07
-1.56115e-08
4.56943e-07
-8.30253e-09
4.53672e-07
-1.38803e-09
4.48855e-07
5.10926e-09
4.42597e-07
1.11763e-08
4.3509e-07
1.68103e-08
4.26487e-07
2.19968e-08
4.16982e-07
2.66924e-08
4.06692e-07
3.08458e-08
3.95795e-07
3.44006e-08
3.84396e-07
3.72997e-08
3.72653e-07
3.94948e-08
3.60646e-07
4.09542e-08
3.48527e-07
4.16639e-08
3.36373e-07
4.16362e-08
3.24349e-07
4.09202e-08
3.12524e-07
3.95729e-08
3.01049e-07
3.76698e-08
2.89992e-07
3.53106e-08
2.79489e-07
3.26306e-08
2.69556e-07
2.98068e-08
2.60251e-07
2.7019e-08
2.51502e-07
2.44431e-08
2.4328e-07
2.22391e-08
2.35436e-07
2.05285e-08
2.27872e-07
1.9391e-08
2.20393e-07
1.88565e-08
2.12885e-07
1.89108e-08
2.05176e-07
1.94789e-08
1.97196e-07
2.0434e-08
1.88845e-07
2.16162e-08
1.80124e-07
2.28516e-08
1.70966e-07
2.39761e-08
1.61357e-07
2.48628e-08
1.51172e-07
2.54438e-08
1.40225e-07
2.57279e-08
1.28113e-07
2.58711e-08
1.14291e-07
2.61567e-08
9.78632e-08
2.70735e-08
7.76337e-08
2.95299e-08
5.17696e-08
3.48372e-08
1.79254e-08
4.42585e-08
-2.69794e-08
5.87856e-08
-8.70929e-08
7.99073e-08
-1.68271e-07
1.10331e-07
-2.78372e-07
1.5319e-07
-4.26383e-07
2.10478e-07
-6.18736e-07
2.82965e-07
-8.54588e-07
3.70041e-07
-1.12656e-06
4.67402e-07
-1.42338e-06
5.66948e-07
-1.72964e-06
6.58342e-07
-2.02524e-06
7.30698e-07
-2.28742e-06
7.74712e-07
-2.50057e-06
7.85119e-07
-2.6621e-06
7.63274e-07
-2.7777e-06
7.15358e-07
-2.8577e-06
6.49396e-07
-2.9131e-06
5.74279e-07
-2.95377e-06
4.97618e-07
-2.98685e-06
4.24627e-07
-3.0166e-06
3.58601e-07
-3.04516e-06
3.01068e-07
-3.07326e-06
2.52315e-07
-3.1009e-06
2.11858e-07
-3.12767e-06
1.78857e-07
-3.15326e-06
1.52203e-07
-3.17756e-06
1.30781e-07
-3.20053e-06
1.13622e-07
-3.22216e-06
9.99173e-08
-3.24246e-06
8.89697e-08
-3.2615e-06
8.02247e-08
-3.2794e-06
7.32204e-08
-3.29627e-06
6.75913e-08
-3.31221e-06
6.29471e-08
-3.32731e-06
5.90373e-08
-3.34164e-06
5.5754e-08
-3.35526e-06
5.28169e-08
-3.36816e-06
5.00487e-08
-3.38039e-06
4.74784e-08
-3.39193e-06
4.51091e-08
-3.40277e-06
4.28389e-08
-3.41293e-06
4.05681e-08
-3.42243e-06
3.83203e-08
-3.43129e-06
3.60322e-08
-3.43952e-06
3.35869e-08
-3.44709e-06
3.1089e-08
-3.45399e-06
2.84837e-08
-3.46025e-06
2.59877e-08
-3.46583e-06
2.3607e-08
-3.47073e-06
2.11047e-08
-3.47493e-06
1.85999e-08
-3.47841e-06
1.60348e-08
-3.48116e-06
1.34169e-08
-3.48319e-06
1.07516e-08
-3.48451e-06
8.03857e-09
-3.48514e-06
5.43177e-09
-3.48506e-06
2.85345e-09
-3.48431e-06
1.87332e-10
-3.48288e-06
-2.4313e-09
-3.4808e-06
-5.11023e-09
-3.47805e-06
-7.6449e-09
-3.4747e-06
-9.99229e-09
-3.47071e-06
-1.22196e-08
-3.46616e-06
-1.41457e-08
-3.46098e-06
-1.5877e-08
-3.45524e-06
-1.7497e-08
-3.44898e-06
-1.89072e-08
-3.44227e-06
-2.01728e-08
-3.43507e-06
-2.1301e-08
-3.42748e-06
-2.21617e-08
-3.41961e-06
-2.27215e-08
-3.41169e-06
-2.30599e-08
-3.40385e-06
-2.31996e-08
-3.3963e-06
-2.31206e-08
-3.38897e-06
-2.27027e-08
-3.38191e-06
-2.16836e-08
-3.37512e-06
-2.00273e-08
-3.36876e-06
-1.75439e-08
-3.36293e-06
-1.39887e-08
-3.35765e-06
-9.11192e-09
-3.35304e-06
-3.04037e-09
-3.3493e-06
3.80966e-09
-3.34658e-06
1.13755e-08
-3.34507e-06
1.97222e-08
-3.34517e-06
2.80928e-08
-3.34699e-06
3.5386e-08
-3.35049e-06
4.10819e-08
-3.35568e-06
4.42111e-08
-3.36221e-06
4.38299e-08
-3.36941e-06
3.92109e-08
-3.37629e-06
2.91693e-08
-3.38121e-06
1.31351e-08
-3.38215e-06
-9.01782e-09
-3.37672e-06
-3.72573e-08
-3.36246e-06
-7.09741e-08
-3.33657e-06
-1.09044e-07
-3.29638e-06
-1.50332e-07
-3.23908e-06
-1.93966e-07
-3.16157e-06
-2.4014e-07
-3.06047e-06
-2.91195e-07
-2.93164e-06
-3.51329e-07
-2.77012e-06
-4.25457e-07
-2.57006e-06
-5.1764e-07
-2.32671e-06
-6.2747e-07
-2.03874e-06
-7.48767e-07
-1.70799e-06
-8.7332e-07
-1.33731e-06
-9.91082e-07
-9.30795e-07
-1.09418e-06
-4.88456e-07
-1.18398e-06
-2.41183e-08
-1.25659e-06
4.3096e-07
-1.29684e-06
8.58847e-07
-1.29917e-06
1.25343e-06
-1.26785e-06
1.61753e-06
-1.20216e-06
1.95415e-06
-1.10709e-06
2.25896e-06
-9.9393e-07
2.52907e-06
-8.65877e-07
2.76305e-06
-7.17033e-07
-5.18498e-07
2.97238e-06
1.65958e-08
-5.15871e-09
8.14847e-08
-8.38507e-08
1.48592e-07
-1.42778e-07
1.96564e-07
-1.66226e-07
2.28184e-07
-1.69109e-07
2.50557e-07
-1.63678e-07
2.68186e-07
-1.55182e-07
2.83214e-07
-1.45489e-07
2.96513e-07
-1.3526e-07
3.08454e-07
-1.24769e-07
3.19159e-07
-1.14158e-07
3.28686e-07
-1.03506e-07
3.37011e-07
-9.28698e-08
3.44113e-07
-8.22889e-08
3.49927e-07
-7.17988e-08
3.54413e-07
-6.14348e-08
3.57503e-07
-5.12337e-08
3.59172e-07
-4.12356e-08
3.59371e-07
-3.14778e-08
3.58097e-07
-2.19989e-08
3.55333e-07
-1.2847e-08
3.51114e-07
-4.07474e-09
3.45459e-07
4.26691e-09
3.38447e-07
1.21311e-08
3.3015e-07
1.94757e-08
3.20709e-07
2.62622e-08
3.10262e-07
3.24468e-08
2.98994e-07
3.79733e-08
2.87063e-07
4.2781e-08
2.74671e-07
4.68084e-08
2.61976e-07
4.99999e-08
2.49172e-07
5.23159e-08
2.36397e-07
5.37352e-08
2.2382e-07
5.42587e-08
2.11547e-07
5.3915e-08
1.99721e-07
5.27632e-08
1.88414e-07
5.08848e-08
1.77719e-07
4.83829e-08
1.67646e-07
4.53876e-08
1.58225e-07
4.20679e-08
1.49399e-07
3.86365e-08
1.41114e-07
3.53175e-08
1.33234e-07
3.23237e-08
1.25647e-07
2.98355e-08
1.18179e-07
2.79914e-08
1.10692e-07
2.68808e-08
1.02997e-07
2.65409e-08
9.49546e-08
2.69503e-08
8.63953e-08
2.80205e-08
7.7217e-08
2.96023e-08
6.73027e-08
3.15095e-08
5.65743e-08
3.35649e-08
4.48657e-08
3.56552e-08
3.19546e-08
3.77527e-08
1.74154e-08
3.9947e-08
6.16898e-10
4.25008e-08
-1.94769e-08
4.59251e-08
-4.43546e-08
5.10086e-08
-7.61186e-08
5.88015e-08
-1.17281e-07
7.06717e-08
-1.71028e-07
8.85569e-08
-2.41356e-07
1.14569e-07
-3.33118e-07
1.50525e-07
-4.51634e-07
1.98402e-07
-6.01548e-07
2.60224e-07
-7.85598e-07
3.37217e-07
-1.00362e-06
4.28477e-07
-1.25089e-06
5.3021e-07
-1.51721e-06
6.36342e-07
-1.78762e-06
7.37785e-07
-2.0432e-06
8.225e-07
-2.26466e-06
8.79779e-07
-2.43801e-06
9.04015e-07
-2.55867e-06
8.95356e-07
-2.63228e-06
8.58706e-07
-2.67091e-06
8.01892e-07
-2.68821e-06
7.32639e-07
-2.69598e-06
6.57151e-07
-2.70233e-06
5.80598e-07
-2.71162e-06
5.06883e-07
-2.72555e-06
4.38512e-07
-2.74395e-06
3.76959e-07
-2.76581e-06
3.22886e-07
-2.78987e-06
2.76329e-07
-2.81493e-06
2.36873e-07
-2.84001e-06
2.03887e-07
-2.86445e-06
1.76592e-07
-2.8879e-06
1.54159e-07
-2.91018e-06
1.35808e-07
-2.93119e-06
1.20814e-07
-2.9509e-06
1.08603e-07
-2.96936e-06
9.8652e-08
-2.98667e-06
9.05196e-08
-3.00292e-06
8.38441e-08
-3.01821e-06
7.82345e-08
-3.03262e-06
7.34362e-08
-3.04619e-06
6.93163e-08
-3.05896e-06
6.55669e-08
-3.07095e-06
6.20028e-08
-3.08216e-06
5.86524e-08
-3.09261e-06
5.55047e-08
-3.10228e-06
5.24435e-08
-3.11119e-06
4.93898e-08
-3.11933e-06
4.63621e-08
-3.12673e-06
4.33122e-08
-3.13342e-06
4.01472e-08
-3.1394e-06
3.69214e-08
-3.14464e-06
3.35561e-08
-3.14913e-06
3.03068e-08
-3.15285e-06
2.71463e-08
-3.15579e-06
2.38567e-08
-3.15797e-06
2.05937e-08
-3.15938e-06
1.72476e-08
-3.15999e-06
1.38314e-08
-3.15982e-06
1.03807e-08
-3.15888e-06