/*--------------------------------*- C++ -*----------------------------------*\
| =========                 |                                                 |
| \\      /  F ield         | OpenFOAM: The Open Source CFD Toolbox           |
|  \\    /   O peration     | Version:  2112                                  |
|   \\  /    A nd           | Website:  www.openfoam.com                      |
|    \\/     M anipulation  |                                                 |
\*---------------------------------------------------------------------------*/
FoamFile
{
    version     2.0;
    format      ascii;
    arch        "LSB;label=32;scalar=64";
    class       volVectorField;
    location    "200";
    object      U;
}
// * * * * * * * * * * * * * * * * * * * * * * * * * * * * * * * * * * * * * //

dimensions      [0 1 -1 0 0 0 0];

internalField   nonuniform List<vector> 
12225
(
(9.77921 0.0428467 0)
(9.36083 0.0777541 0)
(8.95413 0.0839991 0)
(8.57159 0.0810908 0)
(8.22884 0.0747257 0)
(7.9283 0.0666745 0)
(7.66577 0.0581314 0)
(7.4377 0.0497499 0)
(7.24092 0.04213 0)
(7.07046 0.0356946 0)
(6.92157 0.0302828 0)
(6.79241 0.0256391 0)
(6.68019 0.0214751 0)
(6.58428 0.0176456 0)
(6.50327 0.013878 0)
(6.43745 0.00971834 0)
(6.3904 0.00501617 0)
(6.35652 -0.00634366 0)
(10.0776 0.0566675 0)
(10.2202 0.0897725 0)
(10.2972 0.0892413 0)
(10.3212 0.086022 0)
(10.3135 0.0835057 0)
(10.284 0.0803095 0)
(10.2377 0.0763617 0)
(10.1791 0.0721181 0)
(10.1128 0.0678381 0)
(10.043 0.0636713 0)
(9.97323 0.0597494 0)
(9.90415 0.0559075 0)
(9.83736 0.0520218 0)
(9.77297 0.0479055 0)
(9.71238 0.043367 0)
(9.65518 0.0377499 0)
(9.60358 0.0302314 0)
(9.55056 0.0168245 0)
(10.0188 0.0417042 0)
(10.0768 0.0641514 0)
(10.1245 0.0669092 0)
(10.1594 0.0707771 0)
(10.1881 0.0746564 0)
(10.2125 0.0763034 0)
(10.2308 0.0759898 0)
(10.2431 0.0745855 0)
(10.2498 0.0725873 0)
(10.2523 0.0702715 0)
(10.2513 0.0676458 0)
(10.2477 0.0647115 0)
(10.242 0.0614284 0)
(10.2349 0.0577077 0)
(10.2268 0.0533309 0)
(10.2178 0.0476456 0)
(10.2081 0.0401348 0)
(10.1942 0.0278975 0)
(10.0085 0.030642 0)
(10.0428 0.0546231 0)
(10.0736 0.0614485 0)
(10.0958 0.0662229 0)
(10.1151 0.0696841 0)
(10.1334 0.0709444 0)
(10.1499 0.0705916 0)
(10.1641 0.0694351 0)
(10.1763 0.0678421 0)
(10.1869 0.0659323 0)
(10.1959 0.0637319 0)
(10.2038 0.0612496 0)
(10.2107 0.0584221 0)
(10.2167 0.0551245 0)
(10.222 0.0511272 0)
(10.2265 0.0459454 0)
(10.2297 0.0392946 0)
(10.2304 0.0303288 0)
(10.005 0.024094 0)
(10.0299 0.0484527 0)
(10.0544 0.0566393 0)
(10.0722 0.0612644 0)
(10.0875 0.0645914 0)
(10.1023 0.0660802 0)
(10.1161 0.066099 0)
(10.1283 0.0652895 0)
(10.1394 0.0639915 0)
(10.1495 0.0623246 0)
(10.1588 0.0603395 0)
(10.1674 0.0580306 0)
(10.1754 0.0553356 0)
(10.1829 0.0521341 0)
(10.1899 0.0482476 0)
(10.1962 0.0433736 0)
(10.2014 0.0374223 0)
(10.2047 0.0302647 0)
(10.0034 0.0195086 0)
(10.0223 0.04243 0)
(10.0428 0.0513594 0)
(10.0587 0.056309 0)
(10.0723 0.0598821 0)
(10.0854 0.0616765 0)
(10.0978 0.0619756 0)
(10.1089 0.0613791 0)
(10.119 0.0602441 0)
(10.1284 0.0587005 0)
(10.1372 0.0568042 0)
(10.1455 0.0545513 0)
(10.1533 0.0518977 0)
(10.1607 0.0487471 0)
(10.1676 0.0449763 0)
(10.1738 0.0404133 0)
(10.179 0.0350666 0)
(10.1828 0.0290303 0)
(10.0024 0.0159713 0)
(10.017 0.0368865 0)
(10.0344 0.0462775 0)
(10.0489 0.0515669 0)
(10.0615 0.0553028 0)
(10.0736 0.0572936 0)
(10.085 0.0578016 0)
(10.0954 0.0573826 0)
(10.105 0.0563871 0)
(10.1139 0.0549469 0)
(10.1223 0.0531233 0)
(10.1302 0.0509235 0)
(10.1377 0.0483226 0)
(10.1448 0.0452516 0)
(10.1513 0.0416356 0)
(10.1572 0.0373932 0)
(10.1622 0.032588 0)
(10.166 0.0273915 0)
(10.0017 0.0131275 0)
(10.0131 0.031952 0)
(10.0279 0.0415229 0)
(10.0411 0.0469909 0)
(10.0528 0.0507557 0)
(10.0641 0.0528648 0)
(10.0748 0.0535466 0)
(10.0847 0.053289 0)
(10.0938 0.0524219 0)
(10.1024 0.0510788 0)
(10.1105 0.0493281 0)
(10.1181 0.0471893 0)
(10.1252 0.0446563 0)
(10.132 0.0416886 0)
(10.1382 0.0382524 0)
(10.1437 0.0343284 0)
(10.1484 0.0300082 0)
(10.1522 0.0254686 0)
(10.0013 0.0108335 0)
(10.0101 0.0275614 0)
(10.0227 0.0370143 0)
(10.0347 0.0425292 0)
(10.0456 0.0462463 0)
(10.0561 0.0484126 0)
(10.0661 0.049226 0)
(10.0756 0.0491012 0)
(10.0843 0.0483431 0)
(10.0925 0.0470902 0)
(10.1003 0.0454143 0)
(10.1076 0.0433475 0)
(10.1144 0.0409 0)
(10.1208 0.038059 0)
(10.1267 0.0348223 0)
(10.132 0.0312107 0)
(10.1364 0.0273237 0)
(10.1402 0.0233152 0)
(10.0009 0.00898049 0)
(10.0079 0.0236543 0)
(10.0186 0.0327201 0)
(10.0294 0.0381687 0)
(10.0395 0.041788 0)
(10.0492 0.0439551 0)
(10.0586 0.0448539 0)
(10.0676 0.0448293 0)
(10.0759 0.0441606 0)
(10.0838 0.0429896 0)
(10.0912 0.0413906 0)
(10.0982 0.0394067 0)
(10.1047 0.0370618 0)
(10.1108 0.0343668 0)
(10.1164 0.0313417 0)
(10.1214 0.0280308 0)
(10.1256 0.0245294 0)
(10.1293 0.0209635 0)
(10.0007 0.00746981 0)
(10.0062 0.0201913 0)
(10.0152 0.0286548 0)
(10.0249 0.0339198 0)
(10.0343 0.0373883 0)
(10.0433 0.0395022 0)
(10.0521 0.0404408 0)
(10.0606 0.0404862 0)
(10.0685 0.0398895 0)
(10.076 0.0387919 0)
(10.0831 0.0372719 0)
(10.0897 0.0353798 0)
(10.0959 0.033152 0)
(10.1017 0.0306157 0)
(10.107 0.0278068 0)
(10.1117 0.0247798 0)
(10.1158 0.0216218 0)
(10.1194 0.018431 0)
(10.0006 0.00628603 0)
(10.0051 0.017339 0)
(10.0128 0.0251221 0)
(10.0215 0.0301217 0)
(10.0302 0.0334078 0)
(10.0386 0.0354304 0)
(10.0469 0.0363674 0)
(10.0549 0.0364522 0)
(10.0625 0.0359081 0)
(10.0696 0.034873 0)
(10.0764 0.0334278 0)
(10.0827 0.0316285 0)
(10.0887 0.029519 0)
(10.0941 0.0271382 0)
(10.0991 0.0245293 0)
(10.1036 0.0217505 0)
(10.1076 0.0188773 0)
(10.1111 0.015989 0)
(10.0005 0.00528017 0)
(10.0042 0.0147754 0)
(10.0108 0.0217807 0)
(10.0187 0.0264316 0)
(10.0266 0.0294987 0)
(10.0345 0.0313958 0)
(10.0423 0.0322982 0)
(10.0499 0.0324007 0)
(10.0571 0.0318973 0)
(10.0639 0.0309198 0)
(10.0703 0.0295498 0)
(10.0764 0.0278469 0)
(10.0821 0.0258604 0)
(10.0873 0.023636 0)
(10.092 0.0212211 0)
(10.0963 0.0186727 0)
(10.1001 0.016057 0)
(10.1036 0.0134356 0)
(10.0004 0.00431182 0)
(10.0034 0.0121708 0)
(10.009 0.0182165 0)
(10.0159 0.0223695 0)
(10.0232 0.0251237 0)
(10.0305 0.0268261 0)
(10.0377 0.0276443 0)
(10.0448 0.0277362 0)
(10.0516 0.0272625 0)
(10.0581 0.026343 0)
(10.0642 0.025059 0)
(10.0699 0.0234703 0)
(10.0753 0.0216302 0)
(10.0802 0.0195861 0)
(10.0847 0.0173879 0)
(10.0888 0.0150875 0)
(10.0925 0.0127415 0)
(10.0958 0.0103947 0)
(10.0003 0.00336588 0)
(10.0028 0.00954043 0)
(10.0075 0.0144639 0)
(10.0135 0.0179544 0)
(10.02 0.0202812 0)
(10.0266 0.0217047 0)
(10.0333 0.0223738 0)
(10.0399 0.0224127 0)
(10.0462 0.021947 0)
(10.0523 0.0210803 0)
(10.058 0.0198878 0)
(10.0634 0.0184287 0)
(10.0685 0.0167536 0)
(10.0732 0.0149114 0)
(10.0775 0.0129471 0)
(10.0814 0.0109086 0)
(10.0849 0.0088394 0)
(10.0881 0.00677396 0)
(10.0002 0.00243361 0)
(10.0023 0.00689758 0)
(10.0062 0.010558 0)
(10.0113 0.0132142 0)
(10.0171 0.0149805 0)
(10.0231 0.0160259 0)
(10.0292 0.0164661 0)
(10.0353 0.0163945 0)
(10.0412 0.0159028 0)
(10.0468 0.0150735 0)
(10.0522 0.0139709 0)
(10.0573 0.0126484 0)
(10.062 0.0111516 0)
(10.0664 0.00952437 0)
(10.0705 0.00780633 0)
(10.0742 0.00603648 0)
(10.0776 0.00424978 0)
(10.0806 0.00246851 0)
(10.0002 0.00150332 0)
(10.0019 0.00422774 0)
(10.0052 0.00650261 0)
(10.0096 0.00815761 0)
(10.0148 0.00921961 0)
(10.0202 0.00977482 0)
(10.0257 0.00989679 0)
(10.0312 0.00964614 0)
(10.0367 0.00908377 0)
(10.0419 0.008266 0)
(10.047 0.00724258 0)
(10.0517 0.00605412 0)
(10.0561 0.00473913 0)
(10.0603 0.00333087 0)
(10.0641 0.00186243 0)
(10.0677 0.000361855 0)
(10.0709 -0.00114338 0)
(10.0739 -0.00264053 0)
(10.0002 0.000546046 0)
(10.0016 0.0014619 0)
(10.0045 0.0022247 0)
(10.0085 0.00271697 0)
(10.0131 0.00292388 0)
(10.018 0.00286607 0)
(10.0231 0.00257021 0)
(10.0282 0.00206308 0)
(10.0333 0.00137395 0)
(10.0382 0.000532178 0)
(10.0429 -0.000434218 0)
(10.0473 -0.00149972 0)
(10.0515 -0.00263978 0)
(10.0554 -0.00383181 0)
(10.0591 -0.00505424 0)
(10.0625 -0.00628762 0)
(10.0657 -0.00751463 0)
(10.0686 -0.00872694 0)
(10.0002 -0.000507416 0)
(10.0016 -0.00157504 0)
(10.0043 -0.00249296 0)
(10.008 -0.00331806 0)
(10.0124 -0.00409726 0)
(10.0171 -0.00487438 0)
(10.0219 -0.00567229 0)
(10.0268 -0.00650138 0)
(10.0316 -0.00736498 0)
(10.0362 -0.00826508 0)
(10.0407 -0.009198 0)
(10.045 -0.0101585 0)
(10.049 -0.0111375 0)
(10.0528 -0.0121267 0)
(10.0563 -0.0131155 0)
(10.0596 -0.0140953 0)
(10.0627 -0.0150567 0)
(10.0655 -0.015997 0)
(10.0002 -0.00153853 0)
(10.0017 -0.00452523 0)
(10.0047 -0.00703666 0)
(10.0087 -0.00906908 0)
(10.0133 -0.0107299 0)
(10.0181 -0.0121401 0)
(10.023 -0.0133734 0)
(10.0279 -0.0144721 0)
(10.0327 -0.0154751 0)
(10.0373 -0.0164129 0)
(10.0417 -0.0173083 0)
(10.0459 -0.0181717 0)
(10.0499 -0.0190112 0)
(10.0536 -0.0198279 0)
(10.0572 -0.020624 0)
(10.0604 -0.0213959 0)
(10.0635 -0.0221436 0)
(10.0663 -0.022865 0)
(10.0002 -0.00250441 0)
(10.0021 -0.00723779 0)
(10.0056 -0.0110898 0)
(10.0102 -0.0140371 0)
(10.0152 -0.0163232 0)
(10.0203 -0.0181687 0)
(10.0254 -0.0196835 0)
(10.0305 -0.0209363 0)
(10.0354 -0.0219979 0)
(10.0401 -0.0229266 0)
(10.0446 -0.0237632 0)
(10.0489 -0.0245313 0)
(10.0529 -0.0252494 0)
(10.0566 -0.0259272 0)
(10.0601 -0.0265734 0)
(10.0634 -0.0271894 0)
(10.0665 -0.0277782 0)
(10.0693 -0.0283398 0)
(10.0003 -0.00357976 0)
(10.0027 -0.0101565 0)
(10.0072 -0.0152347 0)
(10.0126 -0.0188888 0)
(10.0181 -0.0216263 0)
(10.0237 -0.0237784 0)
(10.0291 -0.0254673 0)
(10.0345 -0.026788 0)
(10.0396 -0.027846 0)
(10.0445 -0.0287263 0)
(10.0491 -0.0294796 0)
(10.0534 -0.0301418 0)
(10.0575 -0.0307365 0)
(10.0613 -0.0312847 0)
(10.0649 -0.0317955 0)
(10.0682 -0.0322781 0)
(10.0714 -0.032733 0)
(10.0742 -0.0331649 0)
(10.0004 -0.00487004 0)
(10.0038 -0.0134771 0)
(10.0095 -0.01961 0)
(10.016 -0.0237289 0)
(10.0222 -0.0267631 0)
(10.0283 -0.0291093 0)
(10.0342 -0.0308685 0)
(10.0399 -0.0321717 0)
(10.0453 -0.0331698 0)
(10.0504 -0.0339646 0)
(10.0552 -0.0346134 0)
(10.0597 -0.0351568 0)
(10.0639 -0.0356275 0)
(10.0678 -0.0360494 0)
(10.0714 -0.036438 0)
(10.0748 -0.0368012 0)
(10.078 -0.0371435 0)
(10.081 -0.0374654 0)
(10.0006 -0.00650618 0)
(10.0054 -0.0174077 0)
(10.013 -0.0242693 0)
(10.0207 -0.028554 0)
(10.0276 -0.0317489 0)
(10.0343 -0.0342015 0)
(10.0407 -0.0359466 0)
(10.0469 -0.0371681 0)
(10.0526 -0.0380636 0)
(10.058 -0.0387446 0)
(10.0631 -0.0392694 0)
(10.0678 -0.0396831 0)
(10.0721 -0.0400261 0)
(10.0762 -0.0403259 0)
(10.08 -0.0406015 0)
(10.0836 -0.0408611 0)
(10.0869 -0.0411108 0)
(10.09 -0.0413466 0)
(10.001 -0.00863765 0)
(10.008 -0.0221493 0)
(10.018 -0.029249 0)
(10.027 -0.0333939 0)
(10.0347 -0.0366037 0)
(10.0421 -0.0390595 0)
(10.0493 -0.0407284 0)
(10.0561 -0.0418461 0)
(10.0623 -0.0426315 0)
(10.0682 -0.0431919 0)
(10.0736 -0.0435829 0)
(10.0786 -0.043857 0)
(10.0832 -0.0440603 0)
(10.0876 -0.0442278 0)
(10.0916 -0.0443802 0)
(10.0953 -0.0445307 0)
(10.0988 -0.0446829 0)
(10.102 -0.0448271 0)
(10.0016 -0.0115167 0)
(10.0118 -0.0276015 0)
(10.0253 -0.034469 0)
(10.0358 -0.038451 0)
(10.0447 -0.0415928 0)
(10.0533 -0.0438633 0)
(10.0616 -0.0453063 0)
(10.0693 -0.0462408 0)
(10.0764 -0.0468811 0)
(10.0829 -0.0473101 0)
(10.0889 -0.0475744 0)
(10.0944 -0.0477263 0)
(10.0995 -0.0478163 0)
(10.1042 -0.0478786 0)
(10.1085 -0.0479377 0)
(10.1125 -0.0480136 0)
(10.1162 -0.0481108 0)
(10.1196 -0.0482015 0)
(10.0029 -0.0159342 0)
(10.0189 -0.0332575 0)
(10.037 -0.0390961 0)
(10.0506 -0.0432642 0)
(10.0621 -0.0467436 0)
(10.0731 -0.0489589 0)
(10.0835 -0.0501405 0)
(10.093 -0.0507799 0)
(10.1015 -0.0511278 0)
(10.1092 -0.0512637 0)
(10.1163 -0.05124 0)
(10.1226 -0.0511181 0)
(10.1283 -0.050959 0)
(10.1335 -0.0507957 0)
(10.138 -0.0506473 0)
(10.1421 -0.0505449 0)
(10.1458 -0.0505067 0)
(10.1491 -0.0504792 0)
(10.0069 -0.0244949 0)
(10.0386 -0.0409743 0)
(10.0668 -0.0432058 0)
(10.0888 -0.046369 0)
(10.1074 -0.050264 0)
(10.1245 -0.0530645 0)
(10.1397 -0.0547184 0)
(10.1525 -0.055709 0)
(10.1633 -0.0562863 0)
(10.1722 -0.0565213 0)
(10.1796 -0.056485 0)
(10.1853 -0.0562571 0)
(10.1897 -0.0559322 0)
(10.1927 -0.0555817 0)
(10.1947 -0.0552523 0)
(10.1957 -0.0549701 0)
(10.1961 -0.0547512 0)
(10.1957 -0.0547155 0)
(10.0478 -0.0372676 0)
(10.1365 -0.064253 0)
(10.1951 -0.0658032 0)
(10.2288 -0.0642315 0)
(10.2485 -0.0634287 0)
(10.2587 -0.0624332 0)
(10.2603 -0.061084 0)
(10.2543 -0.05965 0)
(10.2423 -0.0582497 0)
(10.2256 -0.0568464 0)
(10.2054 -0.0554314 0)
(10.1823 -0.0540299 0)
(10.1571 -0.0527001 0)
(10.1304 -0.0514492 0)
(10.1032 -0.0503231 0)
(10.076 -0.0494643 0)
(10.049 -0.0488234 0)
(10.0226 -0.0488003 0)
(9.87294 -0.0289208 0)
(9.64848 -0.0557389 0)
(9.41936 -0.0642067 0)
(9.19323 -0.0659585 0)
(8.98124 -0.0653563 0)
(8.78668 -0.0631523 0)
(8.60813 -0.0599283 0)
(8.44441 -0.0561972 0)
(8.29467 -0.0522733 0)
(8.1583 -0.0483893 0)
(8.03419 -0.044606 0)
(7.9214 -0.0409879 0)
(7.81869 -0.0376044 0)
(7.72516 -0.0345833 0)
(7.63903 -0.0320408 0)
(7.5593 -0.0299532 0)
(7.48491 -0.0282282 0)
(7.41577 -0.0271995 0)
(-0.0077028 0.0199463 -9.53652e-19)
(-0.0285733 0.0253341 8.84025e-19)
(-0.0510626 0.0156103 0)
(-0.0548989 -0.00633123 0)
(-0.0299149 -0.034282 0)
(0.00866345 -0.0571554 -6.79082e-19)
(0.0548743 -0.0690168 0)
(0.105907 -0.0728582 0)
(0.159365 -0.0720509 0)
(0.211933 -0.0687917 0)
(0.261325 -0.064188 1.8702e-19)
(0.306814 -0.0587813 0)
(0.3484 -0.0529842 0)
(0.38606 -0.0471253 0)
(0.419703 -0.0414127 0)
(0.449311 -0.0359787 1.24988e-19)
(0.474997 -0.0308514 0)
(0.496916 -0.0260956 0)
(0.51525 -0.0216706 0)
(0.530181 -0.0176772 0)
(0.541899 -0.0139966 0)
(0.550544 -0.0104651 0)
(0.556229 -0.00716897 0)
(0.559115 -0.00383905 1.0893e-19)
(0.55903 -0.000608993 -1.09298e-19)
(0.555823 0.0026287 1.1007e-19)
(0.549747 0.00593226 1.11289e-19)
(0.541161 0.00889608 0)
(0.530455 0.0114784 0)
(0.518016 0.0136917 -1.18076e-19)
(0.504257 0.0154965 -1.2131e-19)
(0.489587 0.0167145 0)
(0.474372 0.0172332 0)
(0.458992 0.0170472 -1.33476e-19)
(0.443852 0.0162167 0)
(0.42936 0.0148325 0)
(0.415875 0.0129882 1.47866e-19)
(0.403666 0.0108267 0)
(0.39293 0.00847336 1.57187e-19)
(0.383757 0.00609806 3.22711e-19)
(0.376147 0.00385866 0)
(0.369987 0.00189977 0)
(0.365051 0.000344823 0)
(0.361044 -0.000712703 0)
(0.357637 -0.00124961 0)
(0.35451 -0.00127492 3.50794e-19)
(0.351359 -0.00084706 3.53581e-19)
(0.347903 -4.8611e-05 3.56935e-19)
(0.343902 0.00101979 0)
(0.339169 0.00226375 -3.66442e-19)
(0.333598 0.0035539 0)
(0.327182 0.00476348 3.81427e-19)
(0.320034 0.00575957 3.91417e-19)
(0.312381 0.00643239 0)
(0.304559 0.00668458 0)
(0.297047 0.00641815 0)
(0.290385 0.0056043 4.4635e-19)
(0.285214 0.00419592 0)
(0.282094 0.00224953 0)
(0.281207 2.21764e-05 0)
(0.282272 -0.00221013 0)
(0.28418 -0.00428707 0)
(0.286227 -0.00614372 0)
(0.287801 -0.00757252 0)
(0.28774 -0.00802262 0)
(0.284826 -0.00730641 -4.66409e-19)
(0.277566 -0.00574507 0)
(0.266586 -0.00433777 0)
(0.253345 -0.00379107 5.11049e-19)
(0.235913 -0.00382156 5.39414e-19)
(0.206066 -0.00426627 0)
(0.15314 -0.00615063 -6.31012e-19)
(0.0831664 -0.0045125 7.75014e-19)
(-0.0573318 0.0154285 0)
(-0.274884 0.0643324 -4.02707e-19)
(-0.520942 0.11474 0)
(-0.800627 0.157967 0)
(-1.10066 0.187047 1.29445e-19)
(-1.40262 0.199735 0)
(-1.69195 0.197603 -9.02199e-20)
(-1.95806 0.184481 0)
(-2.19491 0.164895 7.2033e-20)
(-2.40024 0.142543 6.64096e-20)
(-2.57498 0.120037 6.20805e-20)
(-2.72139 0.0994477 1.17299e-19)
(-2.84319 0.0827448 -1.11686e-19)
(-2.94484 0.0691353 0)
(-3.03002 0.0575014 0)
(-3.10171 0.0481044 0)
(-3.16277 0.0403451 -9.68203e-20)
(-3.21513 0.0344487 -9.41721e-20)
(-3.26099 0.0300119 9.18079e-20)
(-3.30149 0.0265951 0)
(-3.33813 0.0241073 -8.77236e-20)
(-3.37166 0.0220526 -8.59287e-20)
(-3.4029 0.0205455 -8.42922e-20)
(-3.43223 0.0192445 0)
(-3.46003 0.018331 0)
(-3.48664 0.0174036 0)
(-3.51194 0.0165029 -7.87894e-20)
(-3.53626 0.0158629 0)
(-3.55964 0.0151799 0)
(-3.58213 0.0144885 7.56457e-20)
(-3.6038 0.0141142 0)
(-3.62486 0.0135856 0)
(-3.645 0.0126295 7.3098e-20)
(-3.66419 0.011856 0)
(-3.6825 0.010944 0)
(-3.69963 0.0100226 -7.08309e-20)
(-3.71582 0.0095295 -7.00946e-20)
(-3.73124 0.0089246 0)
(-3.74572 0.00815347 6.86046e-20)
(-3.75919 0.0073862 0)
(-3.77162 0.00651716 -6.70002e-20)
(-3.78285 0.00573136 0)
(-3.79287 0.0051753 -6.52493e-20)
(-3.8017 0.00471829 -6.43293e-20)
(-3.80921 0.00430199 0)
(-3.81549 0.00385697 0)
(-3.82039 0.00323559 0)
(-3.82409 0.00275189 0)
(-3.82694 0.00228203 0)
(-3.8288 0.00157935 0)
(-3.82981 0.00085117 0)
(-3.83006 0.00017466 -5.63277e-20)
(-3.82977 -0.000346938 5.52983e-20)
(-3.82914 -0.00111962 0)
(-3.82801 -0.00224155 0)
(-3.82643 -0.00327749 0)
(-3.82461 -0.00440157 0)
(-3.82237 -0.00509665 9.79587e-20)
(-3.82033 -0.00550989 0)
(-3.81814 -0.00605941 -9.09802e-20)
(-3.81586 -0.0065137 8.7047e-20)
(-3.81326 -0.00691924 0)
(-3.8104 -0.00654165 0)
(-3.80781 -0.00591225 0)
(-3.80534 -0.00543096 -7.14083e-20)
(-3.80327 -0.00496444 -6.84085e-20)
(-3.8018 -0.00467261 0)
(-3.80176 -0.00336655 -6.40929e-20)
(-3.80462 -0.00179647 -6.25443e-20)
(-3.81141 -0.000439692 6.11813e-20)
(-3.82337 0.001602 0)
(-3.84127 0.00428231 0)
(-3.86537 0.00671718 5.56617e-20)
(-3.89427 0.0100844 0)
(-3.92802 0.0142325 0)
(-3.96393 0.017867 0)
(-3.99952 0.0225587 0)
(-4.03256 0.0273887 -3.07835e-20)
(-4.05915 0.0310738 -2.61369e-20)
(-4.07546 0.0347207 0)
(-4.08187 0.038582 -2.50074e-20)
(-4.07704 0.041897 0)
(-4.0592 0.0433218 0)
(-4.02737 0.0431987 -6.27881e-20)
(-3.98146 0.0409876 0)
(-3.92123 0.0356025 -1.19999e-19)
(-3.84815 0.0285424 0)
(-3.76288 0.0198139 0)
(-3.66412 0.00850835 -2.16785e-19)
(-3.54898 -0.00528825 0)
(-3.41262 -0.0211023 -2.41008e-19)
(-3.24839 -0.0394734 0)
(-3.04978 -0.0603654 0)
(-2.81229 -0.0840414 0)
(-2.53418 -0.109576 8.18528e-20)
(-2.21938 -0.134236 0)
(-1.87573 -0.157383 1.26527e-19)
(-1.51333 -0.17793 0)
(-1.13534 -0.194101 0)
(-0.758418 -0.214292 0)
(-0.32192 -0.230822 0)
(0.198504 -0.217454 0)
(0.655157 -0.191785 0)
(1.07083 -0.166536 0)
(1.42755 -0.141478 -1.18481e-18)
(1.74431 -0.115951 0)
(1.91516 -0.0725629 0)
(0.0035338 0.0400755 2.99619e-18)
(-0.00253112 0.0524096 -3.16795e-18)
(0.0124672 0.0253656 0)
(0.0555119 -0.0380877 8.56644e-19)
(0.102275 -0.0990912 0)
(0.148381 -0.13685 1.62458e-19)
(0.192879 -0.152989 -2.44802e-19)
(0.23427 -0.155339 -1.98235e-19)
(0.271737 -0.150252 0)
(0.305384 -0.141369 -1.50149e-19)
(0.335667 -0.130533 -6.8548e-20)
(0.362977 -0.118761 0)
(0.38752 -0.106701 0)
(0.409394 -0.0947594 0)
(0.428669 -0.0831532 0)
(0.445423 -0.0719928 -5.68787e-20)
(0.459734 -0.0613489 0)
(0.471673 -0.0512607 1.12878e-19)
(0.481316 -0.0417555 0)
(0.488736 -0.0328383 0)
(0.493996 -0.0245 -1.15237e-19)
(0.497219 -0.016696 0)
(0.498562 -0.00938808 1.18744e-19)
(0.498203 -0.00247025 -6.05237e-20)
(0.496581 0.00415893 6.17217e-20)
(0.493994 0.0104282 -6.32143e-20)
(0.490413 0.0161753 -6.50123e-20)
(0.485788 0.0212542 0)
(0.480062 0.0255625 0)
(0.473221 0.0290381 7.17284e-20)
(0.465287 0.031639 -7.42074e-20)
(0.456347 0.0333572 0)
(0.446544 0.0342225 0)
(0.436038 0.0342691 8.27091e-20)
(0.424963 0.0335638 0)
(0.413506 0.0322273 0)
(0.401838 0.0303061 -9.0821e-20)
(0.390101 0.027931 0)
(0.378516 0.0252502 9.53536e-20)
(0.367191 0.0223893 -1.94667e-19)
(0.356295 0.0195236 0)
(0.345961 0.0168271 0)
(0.336296 0.0144493 -4.01446e-19)
(0.327363 0.0125307 -4.0321e-19)
(0.319174 0.0111488 -4.04957e-19)
(0.311683 0.0103307 2.03608e-19)
(0.304801 0.0100638 -2.05461e-19)
(0.298413 0.0103235 -6.24352e-19)
(0.292375 0.0109966 4.24183e-19)
(0.286536 0.0119535 2.17558e-19)
(0.280787 0.0130465 0)
(0.275059 0.0141077 -2.32212e-19)
(0.269297 0.0149276 2.41131e-19)
(0.263456 0.0153043 0)
(0.257495 0.01505 0)
(0.251391 0.0139737 0)
(0.245009 0.0120205 -2.87549e-19)
(0.238361 0.00922461 0)
(0.231177 0.00563288 6.18763e-19)
(0.223041 0.00185923 0)
(0.213877 -0.00120951 6.34794e-19)
(0.203269 -0.00291297 0)
(0.190316 -0.00284901 -6.40226e-19)
(0.173867 -0.000925886 0)
(0.151949 0.00402948 6.76385e-19)
(0.123293 0.0123168 -3.63122e-19)
(0.0851587 0.0227011 0)
(0.0321503 0.0345157 -1.01203e-18)
(-0.0503721 0.0514611 -5.53407e-19)
(-0.189286 0.0832211 -4.21109e-19)
(-0.37526 0.136153 0)
(-0.60878 0.204845 -1.87878e-19)
(-0.88536 0.284007 -1.33856e-19)
(-1.18921 0.367215 0)
(-1.50257 0.441873 8.07982e-20)
(-1.80576 0.490949 -1.38002e-19)
(-2.08886 0.508637 0)
(-2.33782 0.497046 -5.4036e-20)
(-2.54653 0.46348 0)
(-2.71468 0.415537 1.42596e-19)
(-2.84631 0.361039 0)
(-2.94726 0.306485 -1.30145e-19)
(-3.02453 0.255845 -4.16811e-20)
(-3.08413 0.211372 4.05535e-20)
(-3.13142 0.173766 7.83749e-20)
(-3.17011 0.142923 -7.58623e-20)
(-3.20294 0.118191 0)
(-3.23159 0.0986393 0)
(-3.25738 0.0833064 0)
(-3.28118 0.0713531 2.0404e-19)
(-3.30338 0.0620386 6.64835e-20)
(-3.32436 0.0547921 -6.49832e-20)
(-3.34437 0.0491493 0)
(-3.3636 0.0447629 -6.1925e-20)
(-3.38211 0.0412936 6.11155e-20)
(-3.39997 0.0385087 6.00253e-20)
(-3.41728 0.0362424 0)
(-3.43401 0.0342806 0)
(-3.45023 0.0325063 0)
(-3.46596 0.0309361 5.617e-20)
(-3.48122 0.029527 0)
(-3.49607 0.0282325 -1.09027e-19)
(-3.5105 0.0269984 -1.6186e-19)
(-3.52448 0.0257769 1.06754e-19)
(-3.53779 0.0245285 0)
(-3.55054 0.0232675 5.22386e-20)
(-3.56273 0.0219606 0)
(-3.57423 0.0205917 1.03006e-19)
(-3.58515 0.0192658 -5.09855e-20)
(-3.59551 0.0179872 -5.05968e-20)
(-3.60524 0.0166246 0)
(-3.61419 0.0152863 -1.49738e-19)
(-3.62256 0.0139088 9.89314e-20)
(-3.63025 0.0124536 4.90125e-20)
(-3.63739 0.0109922 0)
(-3.644 0.00952489 4.79566e-20)
(-3.65012 0.00814143 1.42346e-19)
(-3.65561 0.00684642 0)
(-3.66073 0.00562357 9.22744e-20)
(-3.66543 0.00450137 9.08184e-20)
(-3.66941 0.00348285 8.92916e-20)
(-3.67295 0.00265697 0)
(-3.67568 0.00195202 0)
(-3.67791 0.00133904 0)
(-3.6795 0.000898954 -4.18819e-20)
(-3.6804 0.000492247 -4.13523e-20)
(-3.68073 4.1361e-05 0)
(-3.68054 -0.000291266 -7.96851e-20)
(-3.67988 -0.000641731 -7.79394e-20)
(-3.67892 -0.00105463 0)
(-3.6777 -0.0013856 -7.38787e-20)
(-3.67615 -0.00166935 -1.43413e-19)
(-3.67436 -0.00185889 6.87219e-20)
(-3.67242 -0.0019421 6.67031e-20)
(-3.67055 -0.00190887 0)
(-3.66893 -0.00166125 0)
(-3.66754 -0.0011532 0)
(-3.66692 -0.000210669 5.29153e-20)
(-3.66711 0.00127608 -5.08815e-20)
(-3.66899 0.00323681 -9.71982e-20)
(-3.67251 0.00570095 4.72319e-20)
(-3.67845 0.00866639 -4.50355e-20)
(-3.68602 0.0119517 -4.51991e-20)
(-3.69499 0.015255 0)
(-3.70483 0.0184673 0)
(-3.71513 0.0211398 4.08307e-20)
(-3.72647 0.0227445 0)
(-3.73843 0.023272 0)
(-3.75061 0.0224985 -6.33988e-20)
(-3.76276 0.0200605 0)
(-3.77466 0.0159919 -2.22178e-20)
(-3.78563 0.0103887 1.76584e-20)
(-3.79521 0.00358548 0)
(-3.7991 -0.00415951 -1.41857e-20)
(-3.79466 -0.0129288 0)
(-3.77992 -0.0224163 0)
(-3.75348 -0.0321578 4.97987e-20)
(-3.71367 -0.0417959 -1.33884e-19)
(-3.65972 -0.0508268 9.90996e-20)
(-3.59053 -0.0595467 0)
(-3.50395 -0.0691354 0)
(-3.39716 -0.0809898 -1.74819e-19)
(-3.26571 -0.0969085 0)
(-3.10388 -0.118367 -2.04346e-19)
(-2.90486 -0.145462 0)
(-2.6634 -0.176675 0)
(-2.3784 -0.208715 0)
(-2.0525 -0.237483 -1.06467e-19)
(-1.68678 -0.262357 0)
(-1.28584 -0.283548 -1.17207e-20)
(-0.859104 -0.303508 0)
(-0.374464 -0.328951 0)
(0.141665 -0.357287 3.54647e-19)
(0.602998 -0.366385 -4.10223e-19)
(1.0251 -0.348778 0)
(1.41768 -0.316041 0)
(1.78449 -0.279172 0)
(2.11007 -0.23836 1.61925e-18)
(2.40191 -0.189327 0)
(2.60616 -0.111717 -1.20468e-18)
(-0.000290159 0.0332737 7.69172e-22)
(0.014879 0.0191402 3.38512e-18)
(0.0613892 -0.0717951 0)
(0.121719 -0.164073 -8.79051e-19)
(0.172854 -0.215377 0)
(0.211974 -0.231703 0)
(0.243122 -0.228893 -1.97397e-22)
(0.268875 -0.217515 1.23524e-19)
(0.290878 -0.202651 1.04952e-19)
(0.310203 -0.186466 9.20899e-20)
(0.327458 -0.169897 0)
(0.342937 -0.153383 0)
(0.356774 -0.137155 -7.29362e-20)
(0.369031 -0.121348 -1.39866e-19)
(0.379723 -0.106044 1.35887e-19)
(0.388845 -0.0913059 0)
(0.396381 -0.0771765 1.32177e-19)
(0.402311 -0.0636859 -6.58661e-20)
(0.406624 -0.0508622 0)
(0.409324 -0.0387268 1.33349e-19)
(0.410418 -0.0272973 6.75092e-20)
(0.409942 -0.0165952 -1.37198e-19)
(0.40794 -0.006648 -6.99459e-20)
(0.404497 0.0025389 0)
(0.399717 0.0109687 1.45742e-19)
(0.393726 0.0186805 1.49465e-19)
(0.386676 0.0256959 0)
(0.378719 0.0319738 1.59009e-19)
(0.369996 0.0374646 0)
(0.36064 0.0421104 1.70867e-19)
(0.350778 0.0458463 8.88387e-20)
(0.34053 0.0486155 0)
(0.330007 0.0503799 0)
(0.319302 0.0511245 0)
(0.30852 0.0508713 0)
(0.29777 0.0497105 0)
(0.28715 0.0477353 0)
(0.276779 0.0450518 2.22335e-19)
(0.266737 0.0418024 -3.39839e-19)
(0.257127 0.038187 0)
(0.248026 0.034441 0)
(0.239472 0.0307851 0)
(0.23146 0.027432 9.67143e-23)
(0.223943 0.0245683 2.35465e-19)
(0.216835 0.0223226 4.7374e-19)
(0.210026 0.0207725 -4.78159e-19)
(0.203383 0.0199262 -2.42269e-19)
(0.196758 0.0197501 2.47119e-19)
(0.19001 0.0201437 -2.54496e-22)
(0.183028 0.0209549 2.61278e-19)
(0.175738 0.0219852 0)
(0.168092 0.0230155 2.83424e-19)
(0.16006 0.0238135 -4.22881e-22)
(0.151614 0.0241937 0)
(0.142715 0.0240216 0)
(0.133217 0.0232241 -3.50422e-19)
(0.122886 0.0218845 0)
(0.111261 0.0202088 0)
(0.0976456 0.0186111 4.05339e-19)
(0.0811353 0.0179978 8.42018e-19)
(0.0603324 0.0195147 -4.37339e-19)
(0.0334813 0.0241993 0)
(-0.00167073 0.0327078 4.87164e-19)
(-0.0487809 0.0460622 0)
(-0.11179 0.0665693 4.88385e-19)
(-0.19696 0.0965065 4.53011e-19)
(-0.31342 0.13733 -8.06328e-19)
(-0.470064 0.191847 -3.43911e-19)
(-0.669256 0.263438 0)
(-0.907005 0.352631 4.49011e-19)
(-1.17291 0.455446 0)
(-1.45563 0.561412 4.44556e-19)
(-1.74005 0.657515 2.52797e-19)
(-2.00511 0.730147 2.21592e-19)
(-2.22921 0.767967 -1.99175e-19)
(-2.40391 0.767428 2.71687e-19)
(-2.53177 0.732723 0)
(-2.62166 0.67186 0)
(-2.68382 0.595598 -1.5255e-19)
(-2.72849 0.514077 -2.17747e-19)
(-2.76375 0.434659 0)
(-2.79452 0.362306 6.67091e-20)
(-2.82378 0.299494 0)
(-2.85254 0.246863 -1.85595e-19)
(-2.88108 0.203914 -3.95334e-22)
(-2.90908 0.169635 4.65013e-22)
(-2.93618 0.142558 1.11431e-19)
(-2.96216 0.121244 0)
(-2.98695 0.104514 -1.04925e-19)
(-3.01054 0.0913807 -4.8869e-22)
(-3.03291 0.0810672 0)
(-3.05412 0.0729632 0)
(-3.0743 0.0665733 0)
(-3.09351 0.0614831 9.33588e-20)
(-3.11181 0.0573237 0)
(-3.12937 0.0538753 0)
(-3.14627 0.050958 0)
(-3.16245 0.0483748 0)
(-3.17802 0.0460117 0)
(-3.19305 0.0438583 8.37046e-20)
(-3.20749 0.0418906 0)
(-3.2213 0.0400149 8.18958e-20)
(-3.23448 0.038121 8.09834e-20)
(-3.24708 0.03633 -8.02746e-20)
(-3.25913 0.0345766 0)
(-3.27064 0.0326402 -7.88024e-20)
(-3.28162 0.0306529 0)
(-3.29189 0.0286503 -7.76439e-20)
(-3.30174 0.0267419 7.71903e-20)
(-3.31086 0.0249667 2.29971e-19)
(-3.31947 0.0232217 0)
(-3.32749 0.021396 2.27538e-19)
(-3.33481 0.0195259 7.53952e-20)
(-3.34146 0.0177128 0)
(-3.34747 0.015808 1.48623e-19)
(-3.35285 0.0138366 1.47457e-19)
(-3.35756 0.0120275 -2.19312e-19)
(-3.36168 0.0102364 0)
(-3.36514 0.00832397 -7.12629e-20)
(-3.36805 0.00658291 -7.03792e-20)
(-3.37029 0.00479596 -2.08303e-19)
(-3.37197 0.00314955 0)
(-3.37307 0.00175265 0)
(-3.37363 0.000446253 0)
(-3.37359 -0.0005917 -6.5753e-20)
(-3.37307 -0.00145592 0)
(-3.37195 -0.00222653 0)
(-3.37027 -0.00290572 6.29324e-20)
(-3.36824 -0.00353765 6.1738e-20)
(-3.3657 -0.00412365 0)
(-3.36272 -0.00459788 0)
(-3.35945 -0.00493867 1.14404e-19)
(-3.35595 -0.00520514 0)
(-3.35253 -0.00542303 -1.05915e-19)
(-3.34934 -0.00551186 -1.0204e-19)
(-3.34635 -0.00522362 0)
(-3.34407 -0.00440492 0)
(-3.34154 -0.00305413 8.72524e-20)
(-3.33991 -0.00116701 -5.86521e-22)
(-3.3385 0.00146791 -4.60547e-23)
(-3.33801 0.0049801 0)
(-3.33794 0.00906112 1.47439e-19)
(-3.33874 0.0134627 0)
(-3.34042 0.0180597 0)
(-3.34321 0.0228856 0)
(-3.34723 0.0272595 -6.77584e-20)
(-3.35283 0.0306326 0)
(-3.36027 0.0328359 1.15216e-19)
(-3.36919 0.0332756 5.20341e-20)
(-3.37981 0.0316025 0)
(-3.39165 0.0276077 3.59705e-20)
(-3.40383 0.0209299 0)
(-3.41559 0.0115817 0)
(-3.4247 -0.000207669 7.57485e-20)
(-3.42914 -0.0142364 -6.23046e-20)
(-3.42644 -0.0300812 0)
(-3.41394 -0.0471095 -1.35184e-19)
(-3.38851 -0.0648298 1.06517e-19)
(-3.34714 -0.0829502 0)
(-3.28631 -0.101715 0)
(-3.20217 -0.122422 0)
(-3.09038 -0.147004 8.15391e-19)
(-2.94594 -0.177478 0)
(-2.7635 -0.215151 3.12281e-19)
(-2.53672 -0.260069 0)
(-2.263 -0.310321 0)
(-1.94335 -0.362794 0)
(-1.58152 -0.411684 0)
(-1.17968 -0.453297 0)
(-0.743432 -0.488269 0)
(-0.266611 -0.518585 -1.84799e-19)
(0.221053 -0.53848 0)
(0.684877 -0.542611 -2.20815e-19)
(1.116 -0.531838 7.71267e-19)
(1.5164 -0.504437 0)
(1.88866 -0.462776 0)
(2.23251 -0.413955 -6.5523e-19)
(2.53946 -0.359335 -6.98245e-19)
(2.81835 -0.294955 7.29883e-19)
(3.03344 -0.203646 7.94058e-19)
(-0.00213301 0.0115477 -6.16371e-18)
(0.0410539 -0.092603 -3.0523e-18)
(0.104356 -0.212213 -9.61032e-19)
(0.157384 -0.275876 -2.85323e-19)
(0.191401 -0.291781 0)
(0.213898 -0.285182 2.83455e-19)
(0.231056 -0.270091 -1.11169e-19)
(0.245435 -0.25199 0)
(0.25805 -0.232827 -7.81054e-20)
(0.269353 -0.213365 0)
(0.279539 -0.193957 1.25783e-19)
(0.288676 -0.174789 0)
(0.296771 -0.155974 5.51146e-20)
(0.303798 -0.137589 1.05689e-19)
(0.309714 -0.119689 -1.02545e-19)
(0.314468 -0.102324 0)
(0.318013 -0.0855416 -9.92892e-20)
(0.320302 -0.0693892 0)
(0.321299 -0.0539035 0)
(0.320978 -0.0391218 -9.92352e-20)
(0.31933 -0.0250957 0)
(0.316359 -0.0118781 3.34256e-23)
(0.312087 0.000479245 0)
(0.306561 0.0119363 0)
(0.299837 0.0224659 -9.00826e-23)
(0.292013 0.0320579 -1.08936e-19)
(0.28321 0.0406895 -1.11529e-19)
(0.273574 0.0483055 -1.14782e-19)
(0.26326 0.054841 0)
(0.252431 0.0602353 -2.4411e-19)
(0.24125 0.0644339 0)
(0.229875 0.0673943 -1.30383e-19)
(0.218456 0.0690976 0)
(0.20713 0.0695579 0)
(0.196023 0.0688294 1.43428e-19)
(0.185248 0.0670119 0)
(0.1749 0.0642311 -1.51084e-19)
(0.165056 0.0606405 -1.26971e-22)
(0.155763 0.0564198 3.14552e-19)
(0.147048 0.0517953 -3.19205e-19)
(0.1389 0.0470549 0)
(0.131267 0.0424841 0)
(0.124063 0.0383401 -1.65117e-19)
(0.117172 0.0348432 0)
(0.110464 0.0321531 -1.6978e-19)
(0.103797 0.0303638 1.72829e-19)
(0.0970203 0.0294984 1.76684e-19)
(0.0899824 0.02951 0)
(0.0825393 0.0302679 -1.87562e-19)
(0.0745645 0.0315722 -1.94948e-19)
(0.0659576 0.0331833 4.07136e-19)
(0.0566257 0.0348598 -2.1449e-19)