# vtk DataFile Version 2.0
track0
ASCII
DATASET POLYDATA
POINTS 12459 double
-0.0205 0.001 1e-05
-0.0202034 0.00100016 1e-05
-0.0199069 0.00100059 1e-05
-0.0196103 0.00100129 1e-05
-0.0193137 0.00100225 1e-05
-0.0190172 0.00100347 1e-05
-0.0187132 0.00100495 1e-05
-0.0184093 0.00100652 1e-05
-0.0181054 0.00100816 1e-05
-0.0178015 0.00100989 1e-05
-0.0174976 0.0010117 1e-05
-0.0172058 0.00101351 1e-05
-0.016914 0.00101533 1e-05
-0.0166222 0.00101717 1e-05
-0.0163305 0.00101904 1e-05
-0.0160387 0.00102093 1e-05
-0.0158599 0.00102211 1e-05
-0.015681 0.00102329 1e-05
-0.0155022 0.00102449 1e-05
-0.0153234 0.00102568 1e-05
-0.0151558 0.00102682 1e-05
-0.0150523 0.00102752 1e-05
-0.0149487 0.00102823 1e-05
-0.0148452 0.00102894 1e-05
-0.0147416 0.00102965 1e-05
-0.0146381 0.00103037 1e-05
-0.0143692 0.00103223 1e-05
-0.0141002 0.00103411 1e-05
-0.0138313 0.001036 1e-05
-0.0135624 0.0010379 1e-05
-0.0132934 0.00103981 1e-05
-0.0130353 0.00104166 1e-05
-0.0127771 0.00104351 1e-05
-0.0125189 0.00104537 1e-05
-0.0122607 0.00104722 1e-05
-0.0120025 0.00104908 1e-05
-0.0117547 0.00105086 1e-05
-0.0115068 0.00105263 1e-05
-0.0112589 0.00105441 1e-05
-0.0110111 0.00105617 1e-05
-0.0107632 0.00105794 1e-05
-0.0105252 0.00105962 1e-05
-0.0102873 0.0010613 1e-05
-0.0100493 0.00106297 1e-05
-0.00981133 0.00106464 1e-05
-0.00957337 0.00106629 1e-05
-0.00934491 0.00106788 1e-05
-0.00911645 0.00106945 1e-05
-0.00888799 0.00107101 1e-05
-0.00865954 0.00107257 1e-05
-0.00843108 0.00107411 1e-05
-0.00821175 0.00107559 1e-05
-0.00799242 0.00107705 1e-05
-0.00777309 0.0010785 1e-05
-0.00755376 0.00107995 1e-05
-0.00733443 0.00108138 1e-05
-0.00712387 0.00108275 1e-05
-0.0069133 0.00108411 1e-05
-0.00670273 0.00108545 1e-05
-0.00649216 0.00108679 1e-05
-0.0062816 0.00108811 1e-05
-0.00607944 0.00108938 1e-05
-0.00587729 0.00109063 1e-05
-0.00567514 0.00109187 1e-05
-0.00547298 0.00109309 1e-05
-0.00527083 0.00109431 1e-05
-0.00507675 0.00109547 1e-05
-0.00488267 0.00109661 1e-05
-0.0046886 0.00109774 1e-05
-0.00449452 0.00109886 1e-05
-0.00430044 0.00109997 1e-05
-0.00411412 0.00110102 1e-05
-0.0039278 0.00110206 1e-05
-0.00374147 0.00110308 1e-05
-0.00355515 0.00110409 1e-05
-0.00336883 0.00110509 1e-05
-0.00318995 0.00110603 1e-05
-0.00301107 0.00110696 1e-05
-0.00283219 0.00110787 1e-05
-0.00265331 0.00110876 1e-05
-0.00247443 0.00110964 1e-05
-0.0023027 0.00111047 1e-05
-0.00213097 0.00111127 1e-05
-0.00195924 0.00111206 1e-05
-0.0017875 0.00111282 1e-05
-0.00161577 0.00111357 1e-05
-0.0014509 0.00111426 1e-05
-0.00128603 0.00111493 1e-05
-0.00112116 0.00111557 1e-05
-0.000956289 0.00111619 1e-05
-0.000791418 0.00111677 1e-05
-0.000633135 0.00111731 1e-05
-0.000474851 0.00111781 1e-05
-0.000316567 0.00111829 1e-05
-0.000158283 0.00111874 1e-05
0 0.00111916 1e-05
0.000105677 0.00111942 1e-05
0.000211355 0.00111967 1e-05
0.000317032 0.00111992 1e-05
0.00042271 0.00112015 1e-05
0.000528387 0.00112037 1e-05
0.000634886 0.00112058 1e-05
0.000741385 0.00112078 1e-05
0.000847885 0.00112099 1e-05
0.000954384 0.00112118 1e-05
0.00106088 0.00112137 1e-05
0.00116821 0.00112156 1e-05
0.00127554 0.00112174 1e-05
0.00138286 0.00112192 1e-05
0.00149019 0.0011221 1e-05
0.00159752 0.00112227 1e-05
0.00170568 0.00112243 1e-05
0.00181384 0.0011226 1e-05
0.001922 0.00112275 1e-05
0.00203016 0.00112291 1e-05
0.00213833 0.00112305 1e-05
0.00224733 0.00112319 1e-05
0.00235633 0.00112332 1e-05
0.00246533 0.00112345 1e-05
0.00257434 0.00112358 1e-05
0.00268334 0.00112369 1e-05
0.00279319 0.0011238 1e-05
0.00290304 0.00112391 1e-05
0.00301289 0.00112401 1e-05
0.00312274 0.00112411 1e-05
0.00323259 0.0011242 1e-05
0.00334329 0.00112428 1e-05
0.003454 0.00112436 1e-05
0.0035647 0.00112443 1e-05
0.0036754 0.0011245 1e-05
0.00378611 0.00112457 1e-05
0.00389767 0.00112462 1e-05
0.00400924 0.00112468 1e-05
0.0041208 0.00112473 1e-05
0.00423237 0.00112477 1e-05
0.00434393 0.00112481 1e-05
0.00445636 0.00112484 1e-05
0.00456879 0.00112487 1e-05
0.00468123 0.00112489 1e-05
0.00479366 0.00112491 1e-05
0.00490609 0.00112493 1e-05
0.0050194 0.00112493 1e-05
0.0051327 0.00112493 1e-05
0.00524601 0.00112493 1e-05
0.00535931 0.00112492 1e-05
0.00547262 0.00112491 1e-05
0.00558681 0.00112489 1e-05
0.005701 0.00112487 1e-05
0.00581518 0.00112484 1e-05
0.00592937 0.0011248 1e-05
0.00604356 0.00112476 1e-05
0.00615863 0.00112472 1e-05
0.00627371 0.00112466 1e-05
0.00638878 0.00112461 1e-05
0.00650386 0.00112454 1e-05
0.00661893 0.00112447 1e-05
0.0067349 0.0011244 1e-05
0.00685087 0.00112432 1e-05
0.00696684 0.00112423 1e-05
0.00708281 0.00112414 1e-05
0.00719878 0.00112404 1e-05
0.00731565 0.00112393 1e-05
0.00743252 0.00112382 1e-05
0.00754939 0.0011237 1e-05
0.00766626 0.00112358 1e-05
0.00778313 0.00112344 1e-05
0.00790091 0.00112331 1e-05
0.00801869 0.00112316 1e-05
0.00813647 0.00112301 1e-05
0.00825425 0.00112284 1e-05
0.00836843 0.00112268 1e-05
0.00836915 0.00112268 1e-05
0.00836987 0.00112268 1e-05
0.00837059 0.00112268 1e-05
0.00837131 0.00112268 1e-05
0.00837203 0.00112268 1e-05
0.00849073 0.0011225 1e-05
0.00860942 0.00112232 1e-05
0.00872812 0.00112213 1e-05
0.00884682 0.00112193 1e-05
0.00896551 0.00112172 1e-05
0.00908513 0.0011215 1e-05
0.00920475 0.00112127 1e-05
0.00932437 0.00112104 1e-05
0.00944398 0.0011208 1e-05
0.0095636 0.00112055 1e-05
0.00968415 0.00112028 1e-05
0.0098047 0.00112001 1e-05
0.00992525 0.00111973 1e-05
0.0100458 0.00111945 1e-05
0.0101663 0.00111915 1e-05
0.0102878 0.00111882 1e-05
0.0104093 0.00111851 1e-05
0.0105308 0.00111818 1e-05
0.0106523 0.00111785 1e-05
0.0107738 0.0011175 1e-05
0.0108962 0.00111712 1e-05
0.0110186 0.00111675 1e-05
0.0111411 0.00111637 1e-05
0.0112635 0.00111599 1e-05
0.0113859 0.00111559 1e-05
0.0115093 0.00111515 1e-05
0.0116327 0.00111473 1e-05
0.0117561 0.00111429 1e-05
0.0118795 0.00111385 1e-05
0.0120028 0.0011134 1e-05
0.0121272 0.0011129 1e-05
0.0122515 0.00111242 1e-05
0.0123759 0.00111193 1e-05
0.0125002 0.00111143 1e-05
0.0126245 0.00111092 1e-05
0.0127498 0.00111035 1e-05
0.0128752 0.00110981 1e-05
0.0130005 0.00110926 1e-05
0.0131258 0.0011087 1e-05
0.0132511 0.00110813 1e-05
0.0133774 0.0011075 1e-05
0.0135036 0.0011069 1e-05
0.0136299 0.00110629 1e-05
0.0137562 0.00110567 1e-05
0.0138825 0.00110503 1e-05
0.0140098 0.00110434 1e-05
0.014137 0.00110367 1e-05
0.0142643 0.001103 1e-05
0.0143915 0.00110231 1e-05
0.0145188 0.00110161 1e-05
0.0146471 0.00110086 1e-05
0.0147753 0.00110012 1e-05
0.0149036 0.00109938 1e-05
0.0150318 0.00109862 1e-05
0.0151601 0.00109786 1e-05
0.0152893 0.00109704 1e-05
0.0154186 0.00109623 1e-05
0.0155478 0.00109542 1e-05
0.0156771 0.0010946 1e-05
0.0158063 0.00109376 1e-05
0.0159366 0.00109288 1e-05
0.0160668 0.00109201 1e-05
0.0161971 0.00109113 1e-05
0.0163274 0.00109024 1e-05
0.0164576 0.00108934 1e-05
0.0165889 0.00108839 1e-05
0.0167201 0.00108745 1e-05
0.0168514 0.0010865 1e-05
0.0169827 0.00108555 1e-05
0.0171139 0.00108457 1e-05
0.0172462 0.00108357 1e-05
0.0173785 0.00108256 1e-05
0.0175108 0.00108154 1e-05
0.0176431 0.00108052 1e-05
0.0177754 0.00107948 1e-05
0.0179087 0.00107841 1e-05
0.018042 0.00107734 1e-05
0.0181753 0.00107626 1e-05
0.0183087 0.00107517 1e-05
0.018442 0.00107406 1e-05
0.0185763 0.00107293 1e-05
0.0187107 0.00107179 1e-05
0.018845 0.00107064 1e-05
0.0189794 0.00106949 1e-05
0.0191137 0.00106832 1e-05
0.0192491 0.00106713 1e-05
0.0193845 0.00106593 1e-05
0.0195199 0.00106471 1e-05
0.0196553 0.00106349 1e-05
0.0197907 0.00106226 1e-05
0.0199272 0.00106101 1e-05
0.0200636 0.00105975 1e-05
0.0202001 0.00105847 1e-05
0.0203365 0.00105718 1e-05
0.020473 0.00105589 1e-05
0.0206105 0.00105459 1e-05
0.020748 0.00105327 1e-05
0.0208855 0.00105192 1e-05
0.021023 0.00105057 1e-05
0.0211606 0.00104922 1e-05
0.0212991 0.00104787 1e-05
0.0214377 0.00104649 1e-05
0.0215763 0.00104508 1e-05
0.0217149 0.00104367 1e-05
0.0218535 0.00104226 1e-05
0.0219931 0.00104085 1e-05
0.0221328 0.00103942 1e-05
0.0222724 0.00103795 1e-05
0.0224121 0.00103648 1e-05
0.0225517 0.00103502 1e-05
0.0226925 0.00103356 1e-05
0.0228332 0.00103207 1e-05
0.022974 0.00103055 1e-05
0.0231147 0.00102902 1e-05
0.0232555 0.0010275 1e-05
0.0233973 0.00102599 1e-05
0.0235391 0.00102445 1e-05
0.023681 0.00102287 1e-05
0.0238228 0.00102128 1e-05
0.0239647 0.00101971 1e-05
0.0241076 0.00101815 1e-05
0.0242505 0.00101655 1e-05
0.0243935 0.00101492 1e-05
0.0245364 0.00101328 1e-05
0.0246794 0.00101166 1e-05
0.0248234 0.00101005 1e-05
0.0249675 0.00100839 1e-05
0.0251115 0.00100671 1e-05
0.0252556 0.00100502 1e-05
0.0253996 0.00100334 1e-05
0.0255448 0.00100167 1e-05
0.02569 0.000999965 1e-05
0.0258351 0.000998229 1e-05
0.0259803 0.000996487 1e-05
0.0261255 0.000994753 1e-05
0.0262718 0.000993028 1e-05
0.0264181 0.000991259 1e-05
0.0265644 0.000989468 1e-05
0.0267107 0.000987671 1e-05
0.026857 0.000985876 1e-05
0.0270044 0.000984089 1e-05
0.0271519 0.000982256 1e-05
0.0272993 0.000980407 1e-05
0.0274468 0.00097855 1e-05
0.0275942 0.000976688 1e-05
0.0277428 0.000974834 1e-05
0.0278914 0.000972932 1e-05
0.0280399 0.000971019 1e-05
0.0281885 0.000969096 1e-05
0.0283371 0.000967163 1e-05
0.0284869 0.000965235 1e-05
0.0286366 0.000963262 1e-05
0.0287863 0.000961277 1e-05
0.0289361 0.000959281 1e-05
0.0290858 0.000957274 1e-05
0.0292367 0.000955263 1e-05
0.0293876 0.000953212 1e-05
0.0295385 0.000951147 1e-05
0.0296894 0.00094907 1e-05
0.0298403 0.000946979 1e-05
0.0299924 0.000944876 1e-05
0.0301445 0.000942738 1e-05
0.0302966 0.000940583 1e-05
0.0304486 0.000938414 1e-05
0.0306007 0.000936229 1e-05
0.030754 0.000934024 1e-05
0.0309072 0.000931787 1e-05
0.0310605 0.000929532 1e-05
0.0312138 0.00092726 1e-05
0.031367 0.000924969 1e-05
0.0315215 0.00092265 1e-05
0.0316759 0.000920302 1e-05
0.0318304 0.000917935 1e-05
0.0319848 0.000915547 1e-05
0.0321393 0.000913139 1e-05
0.0321681 0.000912686 1e-05
0.0321969 0.000912232 1e-05
0.0322258 0.000911777 1e-05
0.0322546 0.000911321 1e-05
0.0322831 0.000910871 1e-05
0.03241 0.000908858 1e-05
0.0325368 0.000906831 1e-05
0.0326637 0.000904788 1e-05
[...]
POINT_DATA 12459
 FIELD attributes 2
p 1 12459 float
-5.62073 -5.65477 -5.69062 -5.72671 -5.76304 -5.81473 -5.88741 -5.95344 -6.01947 -6.08549 -6.15086 -6.19552 -6.2374 -6.27928 -6.32115 -6.36195 -6.37785 -6.39391 -6.40997 -6.42603 -6.44108 -6.45041 -6.45973 -6.46906 -6.47839 -6.48762 -6.51226 -6.537 -6.56173 -6.58647 -6.61134 -6.63655 -6.6618 -6.68705 -6.7123 -6.73726 -6.76005 -6.78262 -6.80518 -6.82775 -6.84971 -6.86952 -6.88919 -6.90886 -6.92853 -6.94781 -6.96573 -6.9837 -7.00166 -7.01963 -7.03746 -7.05431 -7.0713 -7.08829 -7.10528 -7.12223 -7.1383 -7.15461 -7.17092 -7.18723 -7.20357 -7.21908 -7.23495 -7.25082 -7.2667 -7.28266 -7.29785 -7.31354 -7.32923 -7.34493 -7.36071 -7.37579 -7.39152 -7.40725 -7.42298 -7.43868 -7.45373 -7.46961 -7.48549 -7.50137 -7.51692 -7.53181 -7.54728 -7.56279 -7.5782 -7.59263 -7.60605 -7.61955 -7.63308 -7.64634 -7.65799 -7.66781 -7.67469 -7.68104 -7.68683 -7.68985 -7.69161 -7.69048 -7.68881 -7.68703 -7.68449 -7.6828 -7.67963 -7.67631 -7.67301 -7.67012 -7.66856 -7.66834 -7.66815 -7.66796 -7.66946 -7.67114 -7.67395 -7.67675 -7.67955 -7.68314 -7.68668 -7.68969 -7.69269 -7.69569 -7.69831 -7.70184 -7.70422 -7.70661 -7.709 -7.71047 -7.71378 -7.71604 -7.71829 -7.72054 -7.72171 -7.72479 -7.72699 -7.72919 -7.73139 -7.73257 -7.73507 -7.73696 -7.73886 -7.74075 -7.74192 -7.74362 -7.74509 -7.74656 -7.74803 -7.74918 -7.75015 -7.75122 -7.7523 -7.75337 -7.75446 -7.75488 -7.75559 -7.7563 -7.75701 -7.75794 -7.75798 -7.75837 -7.75875 -7.75914 -7.75978 -7.75963 -7.75974 -7.75986 -7.75997 -7.76026 -7.76002 -7.75991 -7.75981 -7.75971 -7.75961 -7.75961 -7.75961 -7.75961 -7.75961 -7.75961 -7.75933 -7.75905 -7.75878 -7.7585 -7.75803 -7.75768 -7.75722 -7.75677 -7.75632 -7.75578 -7.75503 -7.7544 -7.75378 -7.75316 -7.75286 -7.75139 -7.7506 -7.74981 -7.74902 -7.7493 -7.74682 -7.74587 -7.74492 -7.74397 -7.74511 -7.74141 -7.74032 -7.73924 -7.73815 -7.74037 -7.73533 -7.73414 -7.73295 -7.73175 -7.73522 -7.72881 -7.72754 -7.72626 -7.72499 -7.72977 -7.72204 -7.72072 -7.7194 -7.71808 -7.72417 -7.71526 -7.71394 -7.71263 -7.71183 -7.71863 -7.70965 -7.70748 -7.70622 -7.70647 -7.71336 -7.70464 -7.70161 -7.70045 -7.70177 -7.70859 -7.70038 -7.69664 -7.69562 -7.69795 -7.70458 -7.69707 -7.69279 -7.69195 -7.69517 -7.70149 -7.6948 -7.69019 -7.68956 -7.69355 -7.6995 -7.69369 -7.68898 -7.6886 -7.6932 -7.69878 -7.69389 -7.68928 -7.6892 -7.69428 -7.69951 -7.69557 -7.69163 -7.69204 -7.69696 -7.70188 -7.6989 -7.69593 -7.69672 -7.7014 -7.70608 -7.70405 -7.70203 -7.70323 -7.70772 -7.71221 -7.71109 -7.70998 -7.71159 -7.71595 -7.72031 -7.72003 -7.71976 -7.72178 -7.72606 -7.73034 -7.73084 -7.73134 -7.73373 -7.73796 -7.74219 -7.74335 -7.74451 -7.74726 -7.75142 -7.75562 -7.75734 -7.75925 -7.76224 -7.76618 -7.77036 -7.77252 -7.77498 -7.77814 -7.7819 -7.78599 -7.78846 -7.79129 -7.79453 -7.7981 -7.80205 -7.80473 -7.80773 -7.81093 -7.81428 -7.81799 -7.82072 -7.82368 -7.8267 -7.82976 -7.83311 -7.83572 -7.83842 -7.84113 -7.84384 -7.8467 -7.84903 -7.85129 -7.85355 -7.85581 -7.85808 -7.85993 -7.8616 -7.86327 -7.86495 -7.86654 -7.86771 -7.86867 -7.86962 -7.87058 -7.87144 -7.87176 -7.8719 -7.87203 -7.87217 -7.87223 -7.87159 -7.87082 -7.87006 -7.8693 -7.86852 -7.86823 -7.86791 -7.8676 -7.86728 -7.86697 -7.86562 -7.86427 -7.86292 -7.86157 -7.86021 -7.85759 -7.85499 -7.85239 -7.84979 -7.84715 -7.84359 -7.84008 -7.83657 -7.83307 -7.82948 -7.82505 -7.82069 -7.81632 -7.81196 -7.80748 -7.80227 -7.79714 -7.79201 -7.78688 -7.7816 -7.77576 -7.76999 -7.76423 -7.75845 -7.75256 -7.74626 -7.74002 -7.73381 -7.72757 -7.72128 -7.71472 -7.7082 -7.70174 -7.69526 -7.68878 -7.68214 -7.67554 -7.66902 -7.66254 -7.65606 -7.64955 -7.64304 -7.63667 -7.63042 -7.62418 -7.61798 -7.61178 -7.60579 -7.59999 -7.59419 -7.58849 -7.5828 -7.57738 -7.57221 -7.56704 -7.56202 -7.557 -7.55234 -7.54797 -7.5436 -7.53939 -7.53526 -7.53155 -7.52808 -7.52468 -7.52147 -7.51849 -7.51585 -7.51337 -7.51107 -7.50896 -7.5073 -7.50584 -7.50445 -7.50336 -7.50244 -7.50221 -7.502 -7.50179 -7.5019 -7.5024 -7.50348 -7.50457 -7.50565 -7.50697 -7.50899 -7.51143 -7.51387 -7.5163 -7.51886 -7.52168 -7.52469 -7.5277 -7.53071 -7.53374 -7.53455 -7.53537 -7.53619 -7.537 -7.53787 -7.54305 -7.54827 -7.55348 -7.55869 -7.56418 -7.57065 -7.57729 -7.58393 -7.59056 -7.59773 -7.60541 -7.61344 -7.62147 -7.6295 -7.63834 -7.64717 -7.65654 -7.66591 -7.67541 -7.68575 -7.69582 -7.70632 -7.71697 -7.72801 -7.73967 -7.75095 -7.7625 -7.77437 -7.78688 -7.79975 -7.81213 -7.82463 -7.83762 -7.8515 -7.8655 -7.8789 -7.8923 -7.9064 -7.92145 -7.9365 -7.95087 -7.96523 -7.98035 -7.99633 -8.01231 -8.02755 -8.04278 -8.05879 -8.07558 -8.09236 -8.10835 -8.12433 -8.14109 -8.15857 -8.17603 -8.19265 -8.20927 -8.22665 -8.24468 -8.26269 -8.27984 -8.29701 -8.3149 -8.33332 -8.35177 -8.36935 -8.38705 -8.40529 -8.42396 -8.44274 -8.46065 -8.47875 -8.49725 -8.51608 -8.53509 -8.55321 -8.57157 -8.59023 -8.60914 -8.62831 -8.64661 -8.66514 -8.68383 -8.70269 -8.7218 -8.7401 -8.75862 -8.77725 -8.79598 -8.81499 -8.83321 -8.85162 -8.87009 -8.88862 -8.90741 -8.92543 -8.94359 -8.96177 -8.97997 -8.99843 -9.01612 -9.03389 -9.05167 -9.06945 -9.08746 -9.10471 -9.12198 -9.13925 -9.15652 -9.17396 -9.19065 -9.20725 -9.22386 -9.24046 -9.25715 -9.27307 -9.28882 -9.30458 -9.32034 -9.33612 -9.35114 -9.36594 -9.38075 -9.39555 -9.41035 -9.42439 -9.43815 -9.45192 -9.46568 -9.47938 -9.4923 -9.50484 -9.51738 -9.52992 -9.54232 -9.55389 -9.56502 -9.57615 -9.58729 -9.59826 -9.60838 -9.61804 -9.62771 -9.63738 -9.64688 -9.65552 -9.66371 -9.67191 -9.68012 -9.68814 -9.69518 -9.70178 -9.70839 -9.715 -9.72144 -9.72662 -9.73144 -9.73627 -9.7411 -9.74582 -9.74899 -9.75195 -9.75492 -9.7579 -9.76046 -9.76054 -9.76063 -9.76071 -9.7608 -9.76088 -9.76208 -9.76328 -9.76448 -9.76569 -9.76654 -9.76619 -9.76559 -9.765 -9.76441 -9.76307 -9.7612 -9.75881 -9.75643 -9.75405 -9.75054 -9.74711 -9.74291 -9.73871 -9.73452 -9.7288 -9.7238 -9.71774 -9.71169 -9.70564 -9.69773 -9.69118 -9.68328 -9.67538 -9.66737 -9.65742 -9.64911 -9.63963 -9.62994 -9.6197 -9.60811 -9.59797 -9.58708 -9.57564 -9.56327 -9.55006 -9.5381 -9.52581 -9.51269 -9.49828 -9.48353 -9.46982 -9.45612 -9.4413 -9.42509 -9.40888 -9.39347 -9.37807 -9.36165 -9.34413 -9.32661 -9.30968 -9.29275 -9.27484 -9.25603 -9.23722 -9.21885 -9.20049 -9.1811 -9.16109 -9.14104 -9.12133 -9.10129 -9.08061 -9.05961 -9.03833 -9.01731 -8.99568 -8.97377 -8.95181 -8.92938 -8.9071 -8.88403 -8.86095 -8.83788 -8.8145 -8.79076 -8.76659 -8.74242 -8.71826 -8.69401 -8.68391 -8.6737 -8.66348 -8.65326 -8.64339 -8.62838 -8.61337 -8.59837 -8.58336 -8.56824 -8.54218 -8.51608 -8.48998 -8.46388 -8.43748 -8.41051 -8.38349 -8.35647 -8.32942 -8.30199 -8.27416 -8.24628 -8.21839 -8.1903 -8.162 -8.13328 -8.10456 -8.07584 -8.0468 -8.01774 -7.98823 -7.95872 -7.92908 -7.89925 -7.86941 -7.83911 -7.80882 -7.77827 -7.74774 -7.71721 -7.68619 -7.65508 -7.6238 -7.59255 -7.56134 -7.52964 -7.49774 -7.4658 -7.43387 -7.40202 -7.36962 -7.33709 -7.30456 -7.27203 -7.2395 -7.23372 -7.22793 -7.22214 -7.21635 -7.21063 -7.18336 -7.15609 -7.12883 -7.10156 -7.0741 -7.04058 -7.00704 -6.9735 -6.93996 -6.90601 -6.87203 -6.83804 -6.80404 -6.76984 -6.73545 -6.70109 -6.66672 -6.63228 -6.59751 -6.56274 -6.52803 -6.49333 -6.45838 -6.42329 -6.38818 -6.35321 -6.31816 -6.28288 -6.24755 -6.21215 -6.17698 -6.14154 -6.10607 -6.0706 -6.035 -6.00877 -5.98241 -5.95604 -5.92968 -5.90473 -5.89519 -5.88565 -5.87611 -5.86657 -5.85695 -5.82132 -5.78558 -5.74985 -5.71412 -5.67801 -5.64269 -5.60692 -5.5711 -5.53508 -5.49884 -5.46353 -5.42822 -5.39231 -5.3561 -5.31987 -5.28461 -5.24936 -5.21388 -5.17775 -5.14158 -5.1064 -5.07114 -5.03583 -5.00053 -4.9646 -4.93502 -4.90544 -4.87585 -4.84627 -4.81867 -4.81285 -4.80703 -4.8012 -4.79538 -4.78953 -4.75504 -4.72038 -4.68573 -4.65108 -4.61625 -4.58302 -4.54914 -4.51495 -4.4807 -4.44639 -4.41374 -4.3811 -4.34791 -4.31411 -4.28029 -4.24825 -4.21618 -4.18403 -4.15165 -4.11816 -4.0906 -4.06287 -4.03514 -4.00742 -3.98172 -3.97734 -3.97296 -3.96857 -3.96419 -3.95979 -3.92864 -3.89717 -3.86571 -3.83425 -3.80253 -3.77323 -3.74309 -3.7115 -3.67931 -3.64707 -3.6177 -3.58835 -3.55793 -3.52486 -3.49123 -3.46104 -3.42891 -3.39658 -3.36427 -3.33127 -3.32825 -3.32493 -3.3216 -3.31827 -3.31497 -3.28359 -3.25226 -3.22096 -3.18963 -3.15556 -3.12231 -3.08661 -3.04711 -3.00291 -2.95865 -2.91931 -2.87943 -2.83316 -2.78364 -2.72965 -2.69813 -2.66147 -2.62375 -2.58609 -2.55308 -2.53357 -2.51409 -2.49463 -2.47442 -2.45146 -2.3931 -2.32584 -2.25898 -2.18311 -2.10344 -2.02952 -1.95451 -1.86476 -1.77423 -1.67422 -1.64627 -1.61551 -1.58174 -1.54801 -1.51696 -1.44509 -1.37359 -1.30245 -1.22306 -1.13635 -1.02002 -0.904351 -0.770698 -0.625457 -0.475714 -0.435927 -0.394724 -0.347763 -0.30085 -0.256946 -0.146415 -0.0364192 0.0730411 0.199582 0.331175 0.490643 0.651446 0.835553 1.01912 1.1697 1.19247 1.21522 1.23803 1.26478 1.29159 1.50223 1.71392 1.93469 2.1744 2.41935 2.47893 2.53845 2.60263 2.66776 2.73043 2.91762 3.10429 3.294 3.49849 3.70667 3.8376 3.96836 4.10471 4.24305 4.37311 4.52087 4.66842 4.81886 4.97531 5.13377 5.30918 5.48439 5.66191 5.84085 6.00968 6.14005 6.27032 6.40175 6.53475 6.66899 6.86412 7.05912 7.25255 7.44465 7.6289 7.75705 7.88517 8.01215 8.138 8.26467 8.45751 8.6503 8.83859 9.02192 9.20152 9.33705 9.47257 9.60406 9.73211 9.86059 10.0358 10.2109 10.3798 10.5405 10.7014 10.8458 10.9901 11.1273 11.2588 11.3902 11.5411 11.6919 11.8353 11.9692 12.1059 12.2519 12.398 12.5344 12.6626 12.79 12.9189 13.0478 13.1681 13.2784 13.3936 13.5273 13.6609 13.7843 13.8972 14.0088 14.1247 14.2407 14.3459 14.4417 14.5446 14.6488 14.7528 14.849 14.9335 15.0168 15.1321 15.2473 15.3477 15.4395 15.5433 15.6028 15.6622 15.7183 15.7648 15.8107 15.9369 16.0628 16.1663 16.2631 16.3849 16.3908 16.3966 16.4025 16.4069 16.4114 16.5116 16.6084 16.7022 16.7734 16.8419 16.8862 16.9282 16.9608 16.9932 17.0338 17.0586 17.0833 17.1079 17.1291 17.1481 17.199 17.2475 17.2904 17.3259 17.3602 17.3948 17.4226 17.4438 17.4645 17.4776 17.4802 17.4851 17.4899 17.4946 17.5006 17.5086 17.5163 17.5237 17.5307 17.5434 17.5647 17.5548 17.5428 17.481 17.4035 17.3161 17.2278 17.118 17.0025 16.8862 16.7642 16.6536 16.5441 16.4342 16.329 16.3 16.2729 16.2458 16.2187 16.1877 16.1214 16.055 15.9886 15.922 15.8593 15.7693 15.6735 15.5774 15.4792 15.3737 15.2683 15.1599 15.0474 14.9272 14.8048 14.682 14.5591 14.4334 14.3039 14.1741 14.0437 13.9132 13.782 13.6514 13.5205 13.3888 13.257 13.1247 12.9942 12.8639 12.7325 12.6014 12.4706 12.3416 12.2138 12.0848 11.9564 11.8286 11.7021 11.5777 11.4518 11.3278 11.2045 11.0824 10.9638 10.8435 10.7249 10.6069 10.4896 10.3757 10.2598 10.1454 10.0313 9.91781 9.80723 9.69429 9.58236 9.47066 9.35952 9.25053 9.13884 9.02723 8.91565 8.80445 8.69418 8.58081 8.46656 8.35184 8.23695 8.12177 8.00301 7.88259 7.76077 7.63767 7.51333 7.38485 7.25422 7.12051 6.98361 6.84489 6.70132 6.55594 6.40589 6.25086 6.09428 5.93208 5.76811 5.59432 5.4099 5.22406 5.03148 4.83873 4.6416 4.43962 4.23762 4.02814 3.81866 3.56912 3.28038 2.9917 2.69225 2.39281 2.14311 1.94193 1.74075 1.53184 1.32293 0.971139 0.485383 0