# vtk DataFile Version 2.0
track0
ASCII
DATASET POLYDATA
POINTS 12459 double
-0.0205 0.001 1e-05
-0.0202034 0.00100016 1e-05
-0.0199069 0.00100059 1e-05
-0.0196103 0.00100129 1e-05
-0.0193137 0.00100225 1e-05
-0.0190172 0.00100347 1e-05
-0.0187132 0.00100495 1e-05
-0.0184093 0.00100652 1e-05
-0.0181054 0.00100816 1e-05
-0.0178015 0.00100989 1e-05
-0.0174976 0.0010117 1e-05
-0.0172058 0.00101351 1e-05
-0.016914 0.00101533 1e-05
-0.0166222 0.00101717 1e-05
-0.0163305 0.00101904 1e-05
-0.0160387 0.00102093 1e-05
-0.0158599 0.00102211 1e-05
-0.015681 0.00102329 1e-05
-0.0155022 0.00102449 1e-05
-0.0153234 0.00102568 1e-05
-0.0151558 0.00102682 1e-05
-0.0150523 0.00102752 1e-05
-0.0149487 0.00102823 1e-05
-0.0148452 0.00102894 1e-05
-0.0147416 0.00102965 1e-05
-0.0146381 0.00103037 1e-05
-0.0143692 0.00103223 1e-05
-0.0141002 0.00103411 1e-05
-0.0138313 0.001036 1e-05
-0.0135624 0.0010379 1e-05
-0.0132934 0.00103981 1e-05
-0.0130353 0.00104166 1e-05
-0.0127771 0.00104351 1e-05
-0.0125189 0.00104537 1e-05
-0.0122607 0.00104722 1e-05
-0.0120025 0.00104908 1e-05
-0.0117547 0.00105086 1e-05
-0.0115068 0.00105263 1e-05
-0.0112589 0.00105441 1e-05
-0.0110111 0.00105617 1e-05
-0.0107632 0.00105794 1e-05
-0.0105252 0.00105962 1e-05
-0.0102873 0.0010613 1e-05
-0.0100493 0.00106297 1e-05
-0.00981133 0.00106464 1e-05
-0.00957337 0.00106629 1e-05
-0.00934491 0.00106788 1e-05
-0.00911645 0.00106945 1e-05
-0.00888799 0.00107101 1e-05
-0.00865954 0.00107257 1e-05
-0.00843108 0.00107411 1e-05
-0.00821175 0.00107559 1e-05
-0.00799242 0.00107705 1e-05
-0.00777309 0.0010785 1e-05
-0.00755376 0.00107995 1e-05
-0.00733443 0.00108138 1e-05
-0.00712387 0.00108275 1e-05
-0.0069133 0.00108411 1e-05
-0.00670273 0.00108545 1e-05
-0.00649216 0.00108679 1e-05
-0.0062816 0.00108811 1e-05
-0.00607944 0.00108938 1e-05
-0.00587729 0.00109063 1e-05
-0.00567514 0.00109187 1e-05
-0.00547298 0.00109309 1e-05
-0.00527083 0.00109431 1e-05
-0.00507675 0.00109547 1e-05
-0.00488267 0.00109661 1e-05
-0.0046886 0.00109774 1e-05
-0.00449452 0.00109886 1e-05
-0.00430044 0.00109997 1e-05
-0.00411412 0.00110102 1e-05
-0.0039278 0.00110206 1e-05
-0.00374147 0.00110308 1e-05
-0.00355515 0.00110409 1e-05
-0.00336883 0.00110509 1e-05
-0.00318995 0.00110603 1e-05
-0.00301107 0.00110696 1e-05
-0.00283219 0.00110787 1e-05
-0.00265331 0.00110876 1e-05
-0.00247443 0.00110964 1e-05
-0.0023027 0.00111047 1e-05
-0.00213097 0.00111127 1e-05
-0.00195924 0.00111206 1e-05
-0.0017875 0.00111282 1e-05
-0.00161577 0.00111357 1e-05
-0.0014509 0.00111426 1e-05
-0.00128603 0.00111493 1e-05
-0.00112116 0.00111557 1e-05
-0.000956289 0.00111619 1e-05
-0.000791418 0.00111677 1e-05
-0.000633135 0.00111731 1e-05
-0.000474851 0.00111781 1e-05
-0.000316567 0.00111829 1e-05
-0.000158283 0.00111874 1e-05
0 0.00111916 1e-05
0.000105677 0.00111942 1e-05
0.000211355 0.00111967 1e-05
0.000317032 0.00111992 1e-05
0.00042271 0.00112015 1e-05
0.000528387 0.00112037 1e-05
0.000634886 0.00112058 1e-05
0.000741385 0.00112078 1e-05
0.000847885 0.00112099 1e-05
0.000954384 0.00112118 1e-05
0.00106088 0.00112137 1e-05
0.00116821 0.00112156 1e-05
0.00127554 0.00112174 1e-05
0.00138286 0.00112192 1e-05
0.00149019 0.0011221 1e-05
0.00159752 0.00112227 1e-05
0.00170568 0.00112243 1e-05
0.00181384 0.0011226 1e-05
0.001922 0.00112275 1e-05
0.00203016 0.00112291 1e-05
0.00213833 0.00112305 1e-05
0.00224733 0.00112319 1e-05
0.00235633 0.00112332 1e-05
0.00246533 0.00112345 1e-05
0.00257434 0.00112358 1e-05
0.00268334 0.00112369 1e-05
0.00279319 0.0011238 1e-05
0.00290304 0.00112391 1e-05
0.00301289 0.00112401 1e-05
0.00312274 0.00112411 1e-05
0.00323259 0.0011242 1e-05
0.00334329 0.00112428 1e-05
0.003454 0.00112436 1e-05
0.0035647 0.00112443 1e-05
0.0036754 0.0011245 1e-05
0.00378611 0.00112457 1e-05
0.00389767 0.00112462 1e-05
0.00400924 0.00112468 1e-05
0.0041208 0.00112473 1e-05
0.00423237 0.00112477 1e-05
0.00434393 0.00112481 1e-05
0.00445636 0.00112484 1e-05
0.00456879 0.00112487 1e-05
0.00468123 0.00112489 1e-05
0.00479366 0.00112491 1e-05
0.00490609 0.00112493 1e-05
0.0050194 0.00112493 1e-05
0.0051327 0.00112493 1e-05
0.00524601 0.00112493 1e-05
0.00535931 0.00112492 1e-05
0.00547262 0.00112491 1e-05
0.00558681 0.00112489 1e-05
0.005701 0.00112487 1e-05
0.00581518 0.00112484 1e-05
0.00592937 0.0011248 1e-05
0.00604356 0.00112476 1e-05
0.00615863 0.00112472 1e-05
0.00627371 0.00112466 1e-05
0.00638878 0.00112461 1e-05
0.00650386 0.00112454 1e-05
0.00661893 0.00112447 1e-05
0.0067349 0.0011244 1e-05
0.00685087 0.00112432 1e-05
0.00696684 0.00112423 1e-05
0.00708281 0.00112414 1e-05
0.00719878 0.00112404 1e-05
0.00731565 0.00112393 1e-05
0.00743252 0.00112382 1e-05
0.00754939 0.0011237 1e-05
0.00766626 0.00112358 1e-05
0.00778313 0.00112344 1e-05
0.00790091 0.00112331 1e-05
0.00801869 0.00112316 1e-05
0.00813647 0.00112301 1e-05
0.00825425 0.00112284 1e-05
0.00836843 0.00112268 1e-05
0.00836915 0.00112268 1e-05
0.00836987 0.00112268 1e-05
0.00837059 0.00112268 1e-05
0.00837131 0.00112268 1e-05
0.00837203 0.00112268 1e-05
0.00849073 0.0011225 1e-05
0.00860942 0.00112232 1e-05
0.00872812 0.00112213 1e-05
0.00884682 0.00112193 1e-05
0.00896551 0.00112172 1e-05
0.00908513 0.0011215 1e-05
0.00920475 0.00112127 1e-05
0.00932437 0.00112104 1e-05
0.00944398 0.0011208 1e-05
0.0095636 0.00112055 1e-05
0.00968415 0.00112028 1e-05
0.0098047 0.00112001 1e-05
0.00992525 0.00111973 1e-05
0.0100458 0.00111945 1e-05
0.0101663 0.00111915 1e-05
0.0102878 0.00111882 1e-05
0.0104093 0.00111851 1e-05
0.0105308 0.00111818 1e-05
0.0106523 0.00111785 1e-05
0.0107738 0.0011175 1e-05
0.0108962 0.00111712 1e-05
0.0110186 0.00111675 1e-05
0.0111411 0.00111637 1e-05
0.0112635 0.00111599 1e-05
0.0113859 0.00111559 1e-05
0.0115093 0.00111515 1e-05
0.0116327 0.00111473 1e-05
0.0117561 0.00111429 1e-05
0.0118795 0.00111385 1e-05
0.0120028 0.0011134 1e-05
0.0121272 0.0011129 1e-05
0.0122515 0.00111242 1e-05
0.0123759 0.00111193 1e-05
0.0125002 0.00111143 1e-05
0.0126245 0.00111092 1e-05
0.0127498 0.00111035 1e-05
0.0128752 0.00110981 1e-05
0.0130005 0.00110926 1e-05
0.0131258 0.0011087 1e-05
0.0132511 0.00110813 1e-05
0.0133774 0.0011075 1e-05
0.0135036 0.0011069 1e-05
0.0136299 0.00110629 1e-05
0.0137562 0.00110567 1e-05
0.0138825 0.00110503 1e-05
0.0140098 0.00110434 1e-05
0.014137 0.00110367 1e-05
0.0142643 0.001103 1e-05
0.0143915 0.00110231 1e-05
0.0145188 0.00110161 1e-05
0.0146471 0.00110086 1e-05
0.0147753 0.00110012 1e-05
0.0149036 0.00109938 1e-05
0.0150318 0.00109862 1e-05
0.0151601 0.00109786 1e-05
0.0152893 0.00109704 1e-05
0.0154186 0.00109623 1e-05
0.0155478 0.00109542 1e-05
0.0156771 0.0010946 1e-05
0.0158063 0.00109376 1e-05
0.0159366 0.00109288 1e-05
0.0160668 0.00109201 1e-05
0.0161971 0.00109113 1e-05
0.0163274 0.00109024 1e-05
0.0164576 0.00108934 1e-05
0.0165889 0.00108839 1e-05
0.0167201 0.00108745 1e-05
0.0168514 0.0010865 1e-05
0.0169827 0.00108555 1e-05
0.0171139 0.00108457 1e-05
0.0172462 0.00108357 1e-05
0.0173785 0.00108256 1e-05
0.0175108 0.00108154 1e-05
0.0176431 0.00108052 1e-05
0.0177754 0.00107948 1e-05
0.0179087 0.00107841 1e-05
0.018042 0.00107734 1e-05
0.0181753 0.00107626 1e-05
0.0183087 0.00107517 1e-05
0.018442 0.00107406 1e-05
0.0185763 0.00107293 1e-05
0.0187107 0.00107179 1e-05
0.018845 0.00107064 1e-05
0.0189794 0.00106949 1e-05
0.0191137 0.00106832 1e-05
0.0192491 0.00106713 1e-05
0.0193845 0.00106593 1e-05
0.0195199 0.00106471 1e-05
0.0196553 0.00106349 1e-05
0.0197907 0.00106226 1e-05
0.0199272 0.00106101 1e-05
0.0200636 0.00105975 1e-05
0.0202001 0.00105847 1e-05
0.0203365 0.00105718 1e-05
0.020473 0.00105589 1e-05
0.0206105 0.00105459 1e-05
0.020748 0.00105327 1e-05
0.0208855 0.00105192 1e-05
0.021023 0.00105057 1e-05
0.0211606 0.00104922 1e-05
0.0212991 0.00104787 1e-05
0.0214377 0.00104649 1e-05
0.0215763 0.00104508 1e-05
0.0217149 0.00104367 1e-05
0.0218535 0.00104226 1e-05
0.0219931 0.00104085 1e-05
0.0221328 0.00103942 1e-05
0.0222724 0.00103795 1e-05
0.0224121 0.00103648 1e-05
0.0225517 0.00103502 1e-05
0.0226925 0.00103356 1e-05
0.0228332 0.00103207 1e-05
0.022974 0.00103055 1e-05
0.0231147 0.00102902 1e-05
0.0232555 0.0010275 1e-05
0.0233973 0.00102599 1e-05
0.0235391 0.00102445 1e-05
0.023681 0.00102287 1e-05
0.0238228 0.00102128 1e-05
0.0239647 0.00101971 1e-05
0.0241076 0.00101815 1e-05
0.0242505 0.00101655 1e-05
0.0243935 0.00101492 1e-05
0.0245364 0.00101328 1e-05
0.0246794 0.00101166 1e-05
0.0248234 0.00101005 1e-05
0.0249675 0.00100839 1e-05
0.0251115 0.00100671 1e-05
0.0252556 0.00100502 1e-05
0.0253996 0.00100334 1e-05
0.0255448 0.00100167 1e-05
0.02569 0.000999965 1e-05
0.0258351 0.000998229 1e-05
0.0259803 0.000996487 1e-05
0.0261255 0.000994753 1e-05
0.0262718 0.000993028 1e-05
0.0264181 0.000991259 1e-05
0.0265644 0.000989468 1e-05
0.0267107 0.000987671 1e-05
0.026857 0.000985876 1e-05
0.0270044 0.000984089 1e-05
0.0271519 0.000982256 1e-05
0.0272993 0.000980407 1e-05
0.0274468 0.00097855 1e-05
0.0275942 0.000976688 1e-05
0.0277428 0.000974834 1e-05
0.0278914 0.000972932 1e-05
0.0280399 0.000971019 1e-05
0.0281885 0.000969096 1e-05
0.0283371 0.000967163 1e-05
0.0284869 0.000965235 1e-05
0.0286366 0.000963262 1e-05
0.0287863 0.000961277 1e-05
0.0289361 0.000959281 1e-05
0.0290858 0.000957274 1e-05
0.0292367 0.000955263 1e-05
0.0293876 0.000953212 1e-05
0.0295385 0.000951147 1e-05
0.0296894 0.00094907 1e-05
0.0298403 0.000946979 1e-05
0.0299924 0.000944876 1e-05
0.0301445 0.000942738 1e-05
0.0302966 0.000940583 1e-05
0.0304486 0.000938414 1e-05
0.0306007 0.000936229 1e-05
0.030754 0.000934024 1e-05
0.0309072 0.000931787 1e-05
0.0310605 0.000929532 1e-05
0.0312138 0.00092726 1e-05
0.031367 0.000924969 1e-05
0.0315215 0.00092265 1e-05
0.0316759 0.000920302 1e-05
0.0318304 0.000917935 1e-05
0.0319848 0.000915547 1e-05
0.0321393 0.000913139 1e-05
0.0321681 0.000912686 1e-05
0.0321969 0.000912232 1e-05
0.0322258 0.000911777 1e-05
0.0322546 0.000911321 1e-05
0.0322831 0.000910871 1e-05
0.03241 0.000908858 1e-05
0.0325368 0.000906831 1e-05
0.0326637 0.000904788 1e-05
[...]
POINT_DATA 12459
 FIELD attributes 1
U 3 12459 float
10.0024 	0.00526955 	0 10.0093 	0.0145943 	0 10.0163 	0.0235361 	0 10.0232 	0.0324523 	0 10.0301 	0.041343 	0 10.041 	0.0489252 	0 10.0478 	0.051829 	0 10.0561 	0.0545243 	0 10.0645 	0.0572155 	0 10.0729 	0.0599026 	0 10.0839 	0.0624697 	0 10.0885 	0.0629354 	0 10.095 	0.0638176 	0 10.1015 	0.0646994 	0 10.108 	0.0655808 	0 10.1154 	0.0665624 	0 10.1178 	0.066943 	0 10.1209 	0.0674369 	0 10.124 	0.0679308 	0 10.1272 	0.0684245 	0 10.1301 	0.0688871 	0 10.1319 	0.0691744 	0 10.1338 	0.0694618 	0 10.1356 	0.0697491 	0 10.1374 	0.0700363 	0 10.1394 	0.0703181 	0 10.1434 	0.0708181 	0 10.1475 	0.0713091 	0 10.1517 	0.0717999 	0 10.1559 	0.0722906 	0 10.1607 	0.0727425 	0 10.1634 	0.0728509 	0 10.1669 	0.0729397 	0 10.1704 	0.0730285 	0 10.1739 	0.0731173 	0 10.1786 	0.0731751 	0 10.18 	0.0729962 	0 10.1827 	0.0728115 	0 10.1854 	0.0726268 	0 10.1881 	0.0724422 	0 10.1926 	0.072268 	0 10.1929 	0.0719317 	0 10.1949 	0.0716027 	0 10.1968 	0.0712737 	0 10.1987 	0.0709449 	0 10.2028 	0.0706578 	0 10.2025 	0.0702378 	0 10.2038 	0.0698283 	0 10.2051 	0.069419 	0 10.2064 	0.0690097 	0 10.21 	0.0686537 	0 10.2095 	0.0681803 	0 10.2103 	0.0677118 	0 10.2111 	0.0672435 	0 10.2119 	0.0667753 	0 10.2149 	0.0663576 	0 10.2145 	0.0658409 	0 10.2149 	0.0653155 	0 10.2154 	0.0647903 	0 10.2158 	0.0642651 	0 10.218 	0.0637798 	0 10.2181 	0.063228 	0 10.2183 	0.0626409 	0 10.2184 	0.0620539 	0 10.2185 	0.0614671 	0 10.2198 	0.0608936 	0 10.2207 	0.0603035 	0 10.2206 	0.0596386 	0 10.2205 	0.0589739 	0 10.2204 	0.0583092 	0 10.2206 	0.0576151 	0 10.2225 	0.0569691 	0 10.2223 	0.0561931 	0 10.222 	0.0554171 	0 10.2218 	0.0546413 	0 10.2207 	0.0537768 	0 10.2238 	0.0530307 	0 10.2235 	0.052066 	0 10.2231 	0.0510994 	0 10.2226 	0.050126 	0 10.2202 	0.0489998 	0 10.2244 	0.0480431 	0 10.2241 	0.0468084 	0 10.2236 	0.0455541 	0 10.2228 	0.0442824 	0 10.2189 	0.0428444 	0 10.224 	0.0416157 	0 10.2238 	0.0399084 	0 10.2228 	0.0381388 	0 10.2213 	0.0363399 	0 10.2158 	0.0343566 	0 10.2215 	0.0327534 	0 10.2211 	0.0308776 	4.88e-21 10.2196 	0.0289522 	1.06478e-20 10.2171 	0.0270562 	1.4781e-20 10.2098 	0.0253035 	1.09236e-20 10.2158 	0.0244645 	1.22879e-19 10.2153 	0.0234122 	1.3397e-19 10.2134 	0.0223191 	1.25787e-19 10.2108 	0.0212148 	1.02973e-19 10.2025 	0.0200335 	-2.20787e-20 10.209 	0.0198004 	-5.8463e-20 10.2079 	0.0193555 	-6.64209e-20 10.206 	0.0188887 	-7.14479e-20 10.2038 	0.0184017 	-7.33754e-20 10.1949 	0.0175693 	-2.20475e-20 10.2019 	0.0174836 	-1.99131e-20 10.2004 	0.0170825 	-1.33854e-20 10.1987 	0.0166734 	-6.74798e-21 10.197 	0.0162642 	-1.10954e-22 10.188 	0.0154907 	1.0883e-20 10.1953 	0.0153697 	-9.73267e-22 10.1938 	0.0148055 	-2.22333e-20 10.1922 	0.0142412 	-4.3495e-20 10.1906 	0.0136769 	-6.47582e-20 10.1817 	0.0128007 	-9.80249e-20 10.189 	0.012731 	-1.60046e-19 10.1874 	0.0121241 	-1.45848e-19 10.1858 	0.011517 	-1.31644e-19 10.1843 	0.0109099 	-1.17434e-19 10.1753 	0.00992247 	-3.28094e-20 10.1824 	0.00999802 	6.22538e-20 10.1807 	0.00945169 	7.74725e-20 10.179 	0.00890525 	9.26834e-20 10.1773 	0.0083587 	1.07887e-19 10.1685 	0.00729772 	4.10266e-20 10.1751 	0.00745346 	-8.72801e-20 10.1733 	0.00696263 	-9.37923e-20 10.1715 	0.0064717 	-1.00293e-19 10.1697 	0.00598065 	-1.06784e-19 10.161 	0.00490331 	-4.04192e-22 10.1672 	0.00501875 	1.00403e-19 10.1652 	0.00455546 	8.94488e-20 10.1633 	0.00409208 	7.84843e-20 10.1613 	0.00362859 	6.75093e-20 10.1528 	0.00261449 	-2.72346e-20 10.1584 	0.00261076 	-1.04276e-19 10.1562 	0.00216212 	-1.28606e-19 10.154 	0.00171338 	-1.52933e-19 10.1518 	0.00126456 	-1.77255e-19 10.1436 	0.000379318 	-1.42643e-19 10.1484 	0.000223889 	-1.81164e-19 10.1459 	-0.000221985 	-1.67252e-19 10.1435 	-0.000667933 	-1.53338e-19 10.141 	-0.00111395 	-1.3942e-19 10.1331 	-0.00184943 	-8.60528e-20 10.1369 	-0.00215584 	-7.43919e-20 10.1341 	-0.00261428 	-5.39922e-20 10.1313 	-0.00307277 	-3.35937e-20 10.1286 	-0.00353132 	-1.31966e-20 10.121 	-0.00414024 	3.86995e-21 10.1237 	-0.00457152 	0 10.1206 	-0.00505548 	0 10.1174 	-0.00553948 	0 10.1142 	-0.00602353 	0 10.1072 	-0.00655565 	0 10.1085 	-0.00707272 	-1.53584e-20 10.1049 	-0.00759026 	-3.60452e-20 10.1013 	-0.00810783 	-5.67335e-20 10.0977 	-0.00862544 	-7.74232e-20 10.0913 	-0.00913783 	-1.00424e-19 10.0908 	-0.00970558 	-1.13368e-19 10.0868 	-0.0102619 	-1.14218e-19 10.0827 	-0.0108183 	-1.15064e-19 10.0787 	-0.0113747 	-1.15905e-19 10.073 	-0.0119163 	-1.10272e-19 10.0705 	-0.0125154 	-6.97614e-20 10.0659 	-0.0131118 	-3.84595e-20 10.0613 	-0.0137084 	-7.16712e-21 10.0567 	-0.0143049 	2.41156e-20 10.0523 	-0.0148833 	5.44313e-20 10.0523 	-0.0148869 	5.46229e-20 10.0522 	-0.0148906 	5.48145e-20 10.0522 	-0.0148942 	5.50062e-20 10.0522 	-0.0148979 	5.51978e-20 10.0521 	-0.0149055 	5.54394e-20 10.047 	-0.0155353 	5.67992e-20 10.0418 	-0.0161689 	5.81581e-20 10.0366 	-0.0168027 	5.95147e-20 10.0314 	-0.0174365 	6.08691e-20 10.0143 	-0.0187207 	6.33148e-20 10.0197 	-0.0187822 	5.01443e-20 10.0139 	-0.0194471 	3.69731e-20 10.0081 	-0.0201121 	2.38006e-20 10.0022 	-0.0207773 	1.06269e-20 9.97223 	-0.0227128 	-8.28897e-22 9.9886 	-0.0222529 	-9.94718e-21 9.9821 	-0.0229426 	-2.23932e-20 9.9756 	-0.0236325 	-3.4838e-20 9.96909 	-0.0243227 	-4.72813e-20 9.92586 	-0.0268339 	-5.97374e-20 9.95321 	-0.0259329 	-6.14531e-20 9.94602 	-0.0266409 	-6.95887e-20 9.93881 	-0.0273491 	-7.77206e-20 9.9316 	-0.0280576 	-8.58487e-20 9.87529 	-0.0310384 	-1.04462e-19 9.91331 	-0.0297964 	-1.54635e-19 9.90539 	-0.0305161 	-1.44803e-19 9.89747 	-0.0312362 	-1.34986e-19 9.88953 	-0.0319567 	-1.25185e-19 9.8207 	-0.0352844 	-4.57281e-20 9.86869 	-0.0338094 	-3.00791e-20 9.86004 	-0.0345352 	-2.12147e-20 9.85137 	-0.0352616 	-1.23494e-20 9.8427 	-0.0359884 	-3.48298e-21 9.76232 	-0.0395344 	0 9.81924 	-0.037932 	0 9.80985 	-0.0386588 	0 9.80045 	-0.0393862 	0 9.79104 	-0.0401142 	0 9.7004 	-0.0437534 	0 9.76493 	-0.042122 	2.03905e-21 9.75481 	-0.0428455 	1.01799e-20 9.74468 	-0.0435698 	1.83198e-20 9.73454 	-0.0442947 	2.64587e-20 9.63526 	-0.0479099 	4.56862e-20 9.70583 	-0.0463355 	1.71639e-19 9.695 	-0.0470509 	1.75209e-19 9.68416 	-0.0477672 	1.78796e-19 9.6733 	-0.0484842 	1.82401e-19 9.56719 	-0.051968 	4.59342e-20 9.6421 	-0.0505203 	2.48052e-20 9.63057 	-0.0512261 	1.75852e-20 9.61903 	-0.0519328 	1.03641e-20 9.60147 	-0.0527949 	4.5697e-21 9.49649 	-0.0559083 	1.95652e-20 9.56454 	-0.0548693 	1.13261e-19 9.56175 	-0.0553613 	1.25558e-19 9.54954 	-0.0560572 	1.27072e-19 9.52141 	-0.0571077 	1.08926e-19 9.42349 	-0.0597102 	4.53452e-21 9.48372 	-0.0590615 	-1.06093e-19 9.48891 	-0.0594153 	-1.42031e-19 9.47607 	-0.0600979 	-1.53547e-19 9.43912 	-0.0612267 	-1.3925e-19 9.34852 	-0.0633479 	-6.75089e-20 9.40089 	-0.0630591 	-1.91821e-19 9.41243 	-0.0633643 	-2.40675e-19 9.399 	-0.0640335 	-2.43431e-19 9.35509 	-0.06514 	-1.86059e-19 9.27192 	-0.06681 	-5.13169e-20 9.31659 	-0.0668461 	-2.74771e-20 9.33285 	-0.0671803 	-1.13496e-20 9.31888 	-0.0678326 	-3.42754e-21 9.26984 	-0.068822 	0 9.19403 	-0.0700697 	0 9.23127 	-0.070384 	0 9.25066 	-0.0708088 	0 9.23618 	-0.0714436 	0 9.18381 	-0.0722433 	2.39714e-21 9.11517 	-0.0731151 	5.82184e-21 9.14535 	-0.0736914 	2.58321e-21 9.1664 	-0.0742768 	0 9.15146 	-0.0748964 	0 9.09742 	-0.0754316 	2.86439e-21 9.03565 	-0.0759514 	6.2939e-21 9.05926 	-0.0767722 	3.05514e-21 9.08064 	-0.0775817 	3.81041e-22 9.06527 	-0.0781857 	7.11385e-21 9.01108 	-0.078385 	2.58456e-20 8.95579 	-0.0785742 	4.49099e-20 8.97335 	-0.0796243 	1.72937e-19 8.99088 	-0.0806759 	3.00965e-19 8.97442 	-0.0812263 	3.01532e-19 8.92517 	-0.0811043 	1.7356e-19 8.8759 	-0.0809828 	4.55869e-20 8.88799 	-0.0822462 	2.68453e-20 8.90004 	-0.0835116 	8.10476e-21 8.88376 	-0.0840025 	7.94613e-22 8.84002 	-0.0835933 	3.90523e-21 8.79629 	-0.0831842 	7.01587e-21 8.80351 	-0.0846443 	4.08934e-21 8.81068 	-0.0861067 	1.16355e-21 8.79472 	-0.0865343 	-4.34992e-22 8.75597 	-0.0858642 	-4.08933e-21 8.71724 	-0.0851935 	-7.74302e-21 8.72017 	-0.086833 	-5.05219e-20 8.72304 	-0.0884751 	-9.33047e-20 8.70755 	-0.0888383 	-9.54234e-20 8.67328 	-0.0879359 	-5.61064e-20 8.63904 	-0.0870327 	-1.67872e-20 8.63826 	-0.0888309 	7.85758e-20 8.63741 	-0.0906321 	1.73933e-19 8.62252 	-0.0909332 	1.83537e-19 8.59222 	-0.0898338 	1.03901e-19 8.56194 	-0.0887331 	2.42655e-20 8.55798 	-0.0906709 	1.29731e-20 8.55394 	-0.0926118 	1.67674e-21 8.53975 	-0.092855 	-3.37831e-21 8.51295 	-0.0915939 	1.39922e-21 8.48618 	-0.0903313 	6.17969e-21 8.47954 	-0.0923861 	3.89035e-22 8.47282 	-0.0944441 	-5.40793e-21 8.45909 	-0.0945846 	-1.63936e-20 8.43567 	-0.0932536 	-6.17789e-20 8.41196 	-0.0918701 	-1.08359e-19 8.40308 	-0.0940202 	-2.28128e-19 8.39345 	-0.0958649 	-3.26491e-19 8.38009 	-0.0960052 	-3.06525e-19 8.36052 	-0.0948601 	-1.92534e-19 8.33947 	-0.0933977 	-5.5444e-20 8.32876 	-0.0956223 	5.85712e-20 8.31729 	-0.0972101 	1.36838e-19 8.30429 	-0.0973656 	1.34983e-19 8.2876 	-0.0964703 	8.24076e-20 8.26885 	-0.0949752 	9.51036e-22 8.25664 	-0.0972598 	-7.90464e-20 8.2442 	-0.0985689 	-1.25583e-19 8.23154 	-0.0987555 	-1.33687e-19 8.21694 	-0.0981578 	-1.05328e-19 8.20018 	-0.096674 	-3.58162e-20 8.18676 	-0.0990105 	-2.6114e-20 8.17402 	-0.100034 	-1.64327e-20 8.1617 	-0.100266 	-6.76351e-21 8.14855 	-0.0999955 	5.58116e-21 8.13352 	-0.0985553 	2.41574e-20 8.11914 	-0.100937 	4.29761e-21 8.10662 	-0.101679 	-3.73436e-21 8.09463 	-0.101967 	-8.50016e-21 8.08242 	-0.102043 	-1.08536e-20 8.0689 	-0.100675 	3.08132e-21 8.05376 	-0.103096 	-1.25045e-20 8.0419 	-0.103567 	-1.79226e-20 8.0302 	-0.103926 	-2.27533e-20 8.01849 	-0.104285 	-2.75854e-20 8.00629 	-0.103093 	-4.54586e-20 7.99107 	-0.105328 	3.70698e-20 7.97968 	-0.105769 	3.902e-20 7.96828 	-0.106211 	4.096e-20 7.95685 	-0.106653 	4.28896e-20 7.94567 	-0.105866 	-1.80647e-20 7.93093 	-0.107814 	3.85747e-20 7.91981 	-0.108349 	4.0355e-20 7.90867 	-0.108884 	4.21247e-20 7.8975 	-0.10942 	4.38838e-20 7.88694 	-0.109045 	6.25986e-21 7.87297 	-0.110725 	7.67284e-22 7.86209 	-0.111362 	5.53163e-22 7.85118 	-0.111999 	3.39078e-22 7.84024 	-0.112636 	1.25029e-22 7.82996 	-0.112669 	7.35803e-21 7.81699 	-0.114104 	0 7.80631 	-0.114847 	0 7.7956 	-0.115591 	0 7.78486 	-0.116336 	0 7.77458 	-0.116763 	4.0732e-21 7.76275 	-0.117977 	0 7.75225 	-0.118829 	0 7.74171 	-0.119682 	0 7.73113 	-0.120535 	0 7.7206 	-0.121341 	0 7.71846 	-0.121573 	0 7.71655 	-0.12175 	0 7.71463 	-0.121928 	0 7.71271 	-0.122105 	0 7.71082 	-0.12228 	0 7.70215 	-0.123062 	0 7.69344 	-0.123845 	0 7.68471 	-0.124628 	0 7.67596 	-0.125412 	0 7.66869 	-0.126011 	0 7.65728 	-0.127226 	0 7.64673 	-0.128285 	0 7.63614 	-0.129346 	0 7.6255 	-0.130407 	0 7.61817 	-0.13107 	0 7.6057 	-0.13256 	0 7.59521 	-0.133709 	0 7.58466 	-0.134859 	0 7.57407 	-0.13601 	0 7.5686 	-0.136558 	0 7.55503 	-0.138306 	-3.44555e-21 7.54455 	-0.139531 	-1.20379e-20 7.53403 	-0.140757 	-2.06274e-20 7.52344 	-0.141984 	-2.9214e-20 7.51978 	-0.14241 	-3.78284e-20 7.50507 	-0.144399 	-2.99809e-20 7.49457 	-0.145683 	-2.923e-20 7.48402 	-0.146969 	-2.84731e-20 7.47342 	-0.148255 	-2.77102e-20 7.4715 	-0.148544 	-3.60964e-20 7.45594 	-0.150709 	-2.66612e-20 7.44509 	-0.152083 	-1.71862e-20 7.43448 	-0.153408 	-7.70585e-21 7.42547 	-0.154544 	0 7.4236 	-0.154862 	0 7.40809 	-0.157038 	0 7.39596 	-0.158632 	-2.92432e-21 7.38527 	-0.159973 	-7.11219e-21 7.37809 	-0.160906 	-1.13718e-20 7.37598 	-0.161253 	-1.57356e-20 7.3605 	-0.163425 	-4.61119e-20 7.34711 	-0.165223 	-7.13157e-20 7.33631 	-0.166558 	-9.01247e-20 7.33091 	-0.167257 	-8.83419e-20 7.32852 	-0.167601 	-7.50488e-20 7.31309 	-0.16975 	-5.09971e-20 7.29845 	-0.171741 	-2.9372e-20 7.28752 	-0.173045 	-1.83246e-20 7.28386 	-0.173476 	-3.63715e-20 7.28119 	-0.173785 	-5.84661e-20 7.2658 	-0.175893 	-7.11408e-20 7.25033 	-0.178001 	-8.38126e-20 7.23988 	-0.179198 	-6.74312e-20 7.23693 	-0.179443 	-3.65856e-20 7.23397 	-0.179688 	-5.73887e-21 7.21864 	-0.181735 	-2.69841e-21 7.20322 	-0.183783 	3.34263e-22 7.19342 	-0.18489 	0 7.19015 	-0.18504 	0 7.18688 	-0.185189 	0 7.17161 	-0.187155 	0 7.15626 	-0.189122 	0 7.14714 	-0.190122 	0 7.14356 	-0.190146 	0 7.13997 	-0.190171 	0 7.12478 	-0.192035 	0 7.10951 	-0.193899 	0 7.10111 	-0.194772 	-1.17449e-21 7.09721 	-0.194647 	-1.83714e-20 7.09331 	-0.194522 	-3.55696e-20 7.07821 	-0.19626 	-1.63557e-20 7.06413 	-0.197838 	2.71332e-23 7.05627 	-0.198506 	2.09112e-22 7.05124 	-0.198432 	3.32058e-21 7.04706 	-0.198139 	7.29645e-21 7.03206 	-0.19973 	3.77236e-20 7.02001 	-0.200866 	5.46422e-20 7.0121 	-0.201369 	5.27468e-20 7.00581 	-0.201412 	4.53865e-20 7.00138 	-0.200937 	3.18905e-20 6.98652 	-0.202365 	7.89465e-21 6.97643 	-0.203031 	6.40892e-21 6.9685 	-0.203353 	1.5054e-20 6.96109 	-0.203511 	2.36738e-20 6.95644 	-0.20284 	3.21613e-20 6.94174 	-0.204089 	9.18416e-20 6.93357 	-0.204258 	9.13128e-20 6.92564 	-0.204386 	8.84957e-20 6.9177 	-0.204514 	8.56742e-20 6.91241 	-0.203778 	3.48766e-20 6.89949 	-0.204566 	2.93618e-20 6.89159 	-0.204495 	2.9893e-20 6.88369 	-0.204424 	3.04248e-20 6.87579 	-0.204353 	3.09573e-20 6.86948 	-0.203723 	3.567e-20 6.85851 	-0.204008 	6.20944e-20 6.85067 	-0.203741 	5.93677e-20 6.84283 	-0.203474 	5.66414e-20 6.835 	-0.203207 	5.39155e-20 6.82782 	-0.202694 	3.83282e-20 6.82041 	-0.202574 	3.24892e-20 6.81434 	-0.20221 	2.65476e-20 6.80828 	-0.201845 	2.06057e-20 6.80222 	-0.201481 	1.46635e-20 6.79614 	-0.201115 	8.70261e-21 6.79442 	-0.201017 	6.85892e-21 6.79271 	-0.200919 	5.01526e-21 6.79099 	-0.200821 	3.17162e-21 6.78928 	-0.200724 	1.328e-21 6.78794 	-0.200567 	-2.40069e-22 6.77992 	-0.199962 	0 6.77208 	-0.199298 	0 6.76426 	-0.198633 	0 6.75646 	-0.197968 	0 6.75076 	-0.196968 	0 6.74209 	-0.196423 	0 6.73442 	-0.195541 	0 6.72676 	-0.194658 	0 6.71913 	-0.193776 	0 6.71523 	-0.192291 	-2.23022e-21 6.70603 	-0.191807 	2.06374e-21 6.69856 	-0.19072 	8.60806e-21 6.69111 	-0.189633 	1.5154e-20 6.68369 	-0.188546 	2.17016e-20 6.68152 	-0.186605 	2.5073e-20 6.6719 	-0.18618 	-5.09459e-21 6.66466 	-0.184904 	-1.02894e-21 6.65746 	-0.183629 	3.05029e-21 6.65111 	-0.182218 	1.1709e-20 6.64979 	-0.179985 	4.81538e-20 6.64044 	-0.179382 	1.09808e-20 6.63284 	-0.178167 	-5.95551e-21 6.62591 	-0.176727 	-1.54356e-20 6.62127 	-0.174921 	-9.79616e-21 6.62012 	-0.172554 	1.91039e-20 6.61112 	-0.17179 	1.50962e-20 6.6032 	-0.170656 	1.23066e-20 6.59658 	-0.16908 	1.0975e-20 6.59356 	-0.166931 	1.62073e-20 6.59263 	-0.164457 	2.51771e-20 6.58399 	-0.163547 	1.59315e-20 6.57582 	-0.162488 	8.34106e-21 6.56954 	-0.160804 	7.68588e-21 6.56805 	-0.158375 	1.80103e-20 6.56732 	-0.155835 	2.99682e-20 6.55906 	-0.154811 	4.10321e-20 6.55083 	-0.153786 	5.20961e-20 6.54526 	-0.151991 	4.63261e-20 6.54469 	-0.149413 	2.61892e-20 6.5442 	-0.146836 	6.05101e-21 6.53631 	-0.145727 	3.39326e-21 6.52846 	-0.144619 	7.34755e-22 6.52381 	-0.142762 	0 6.52349 	-0.140147 	0 6.52324 	-0.137532 	0 6.51576 	-0.136343 	0 6.50831 	-0.135154 	0 6.50452 	-0.133255 	-3.51218e-21 6.50442 	-0.130639 	-1.07487e-20 6.5044 	-0.128022 	-1.79943e-20 6.49732 	-0.12678 	-9.75994e-21 6.49027 	-0.125538 	-1.52951e-21 6.48725 	-0.12363 	3.50679e-21 6.48736 	-0.121047 	8.30879e-21 6.48754 	-0.118465 	1.31067e-20 6.48084 	-0.117198 	8.72619e-21 6.47417 	-0.115931 	4.34393e-21 6.47183 	-0.11404 	5.36788e-21 6.47215 	-0.111518 	2.00706e-20 6.47253 	-0.108997 	3.47764e-20 6.4662 	-0.107729 	1.97594e-20 6.46004 	-0.106443 	4.99823e-21 6.45832 	-0.104579 	-1.88875e-21 6.45869 	-0.102191 	-4.27095e-21 6.45928 	-0.099766 	-6.3219e-21 6.45331 	-0.0985335 	-4.0454e-20 6.44817 	-0.0972003 	-6.9469e-20 6.44667 	-0.0954156 	-7.55236e-20 6.4469 	-0.0932274 	-5.57441e-20 6.44766 	-0.0909225 	-2.84885e-20 6.44203 	-0.089752 	-5.48085e-20 6.43779 	-0.088416 	-7.17328e-20 6.43649 	-0.0867303 	-6.87885e-20 6.43659 	-0.0847359 	-4.97145e-20 6.43753 	-0.0825632 	-2.13121e-20 6.43221 	-0.0814692 	-4.86987e-20 6.42878 	-0.0801633 	-6.16239e-20 6.42766 	-0.0785963 	-5.67445e-20 6.42765 	-0.0768028 	-3.84525e-20 6.42875 	-0.0747871 	-7.00513e-21 6.42372 	-0.073797 	-5.14241e-21 6.42099 	-0.0725618 	-3.20785e-21 6.42004 	-0.0711375 	-1.21753e-21 6.41995 	-0.0695534 	0 6.4212 	-0.0677176 	0 6.41644 	-0.066857 	0 6.41433 	-0.0657267 	0 6.41355 	-0.0644639 	0 6.41339 	-0.0630946 	0 6.41478 	-0.0614551 	0 6.41027 	-0.0607454 	0 6.40872 	-0.0597503 	-1.37619e-21 6.40809 	-0.0586684 	-3.17041e-21 6.40787 	-0.0575221 	-3.58795e-21 6.40939 	-0.0560952 	1.97182e-21 6.40511 	-0.0555584 	-3.30777e-20 6.40405 	-0.0547216 	-3.78114e-20 6.40356 	-0.0538341 	-3.7428e-20 6.40329 	-0.0529144 	-3.36163e-20 6.40492 	-0.0517028 	1.22595e-21 6.40084 	-0.0513465 	-4.73153e-21 6.40021 	-0.0506734 	-1.99125e-22 6.39984 	-0.0499792 	5.03587e-21 6.39952 	-0.0492792 	1.01056e-20 6.40126 	-0.0482796 	6.58441e-21 6.3974 	-0.0481033 	3.77132e-20 6.39713 	-0.0476149 	3.91958e-20 6.39687 	-0.0471266 	4.0681e-20 6.39662 	-0.0466383 	4.21689e-20 6.39835 	-0.0458887 	1.43861e-20 6.3949 	-0.0459041 	1.6285e-20 6.39473 	-0.0456437 	1.4638e-20 6.39456 	-0.0453833 	1.29905e-20 6.3944 	-0.0451229 	1.13423e-20 6.39606 	-0.044634 	8.34719e-21 6.39297 	-0.0448533 	1.0557e-20 6.39287 	-0.0448113 	5.61557e-21 6.39278 	-0.0447694 	6.74106e-22 6.39269 	-0.0447275 	-4.26738e-21 6.39426 	-0.0444723 	-6.55415e-21 6.3915 	-0.0448727 	-2.59572e-20 6.39147 	-0.0450338 	-2.7403e-20 6.39143 	-0.045195 	-2.88478e-20 6.3914 	-0.0453561 	-3.02916e-20 6.39288 	-0.0453298 	-9.03204e-21 6.39043 	-0.0459184 	-1.07488e-20 6.39045 	-0.0463031 	-7.52941e-21 6.39045 	-0.0466877 	-4.31038e-21 6.39045 	-0.0470723 	-1.09171e-21 6.39182 	-0.0473008 	0 6.38965 	-0.0481061 	0 6.38969 	-0.0487291 	0 6.38971 	-0.049352 	0 6.38973 	-0.0499748 	0 6.39094 	-0.0504561 	0 6.38902 	-0.0514595 	0 6.38905 	-0.0522921 	0 6.38905 	-0.0531246 	0 6.38904 	-0.0539569 	0 6.39007 	-0.0546571 	0 6.38838 	-0.0558185 	0 6.38836 	-0.056833 	0 6.38832 	-0.0578473 	0 6.38826 	-0.0588615 	0 6.38906 	-0.0597664 	0 6.3876 	-0.0610843 	-9.46594e-22 6.38751 	-0.0622896 	-2.54679e-21 6.38739 	-0.0634946 	-4.14752e-21 6.38725 	-0.0646995 	-5.74878e-21 6.38777 	-0.0658257 	-7.35304e-21 6.38654 	-0.0673236 	-6.90963e-21 6.38636 	-0.0687364 	-6.97859e-21 6.38615 	-0.070149 	-7.04882e-21 6.38591 	-0.0715613 	-7.12031e-21 6.38612 	-0.0729194 	-7.55123e-21 6.38513 	-0.0745876 	-8.45832e-21 6.38484 	-0.076194 	-1.00622e-20 6.38452 	-0.0778002 	-1.16681e-20 6.38417 	-0.079406 	-1.32762e-20 6.38403 	-0.080981 	-1.58088e-20 6.38324 	-0.0827807 	-1.72021e-20 6.38279 	-0.0845489 	-1.67806e-20 6.38231 	-0.0863167 	-1.63498e-20 6.38179 	-0.0880841 	-1.59095e-20 6.38131 	-0.0896033 	-1.55228e-20 6.38129 	-0.0896527 	-1.55186e-20 6.38127 	-0.0897022 	-1.55143e-20 6.38125 	-0.0897516 	-1.551e-20 6.38123 	-0.0898011 	-1.55057e-20 6.38121 	-0.0898502 	-1.55254e-20 6.38046 	-0.0917515 	-1.23223e-20 6.37967 	-0.0936518 	-9.12937e-21 6.37883 	-0.0955517 	-5.93461e-21 6.37796 	-0.0974511 	-2.73803e-21 6.37726 	-0.0993395 	-9.29745e-22 6.37618 	-0.101377 	-2.58731e-21 6.37512 	-0.103396 	-5.63799e-21 6.37403 	-0.105414 	-8.68666e-21 6.37289 	-0.107432 	-1.17333e-20 6.3721 	-0.10943 	-1.47821e-20 6.37069 	-0.111596 	-2.41973e-20 6.36934 	-0.113726 	-2.78513e-20 6.36795 	-0.115855 	-3.15157e-20 6.36651 	-0.117983 	-3.51906e-20 6.36554 	-0.120088 	-2.82802e-20 6.36383 	-0.122386 	-2.33017e-20 6.36218 	-0.124621 	-1.97954e-20 6.36048 	-0.126855 	-1.62826e-20 6.35873 	-0.129089 	-1.27631e-20 6.35751 	-0.131284 	-9.18334e-21 6.35551 	-0.133706 	-1.02517e-20 6.35353 	-0.136021 	-7.08301e-21 6.35151 	-0.138336 	-3.91201e-21 6.34944 	-0.14065 	-7.38698e-22 6.34789 	-0.142888 	1.09831e-20 6.34561 	-0.145401 	-2.36054e-20 6.34329 	-0.147766 	-2.47538e-20 6.34091 	-0.15013 	-2.59212e-20 6.33851 	-0.152489 	-2.51718e-20 6.33654 	-0.154755 	6.87166e-21 6.334 	-0.157312 	7.84045e-22 6.33132 	-0.159731 	-1.33468e-22 6.32857 	-0.162124 	-5.55518e-23 6.32587 	-0.164485 	0 6.32336 	-0.166771 	0 6.32056 	-0.169339 	0 6.31757 	-0.171809 	-1.74185e-21 6.31443 	-0.174206 	-4.76658e-21 6.31136 	-0.176541 	-1.13923e-20 6.30834 	-0.17882 	-2.