/*--------------------------------*- C++ -*----------------------------------*\
| =========                 |                                                 |
| \\      /  F ield         | OpenFOAM: The Open Source CFD Toolbox           |
|  \\    /   O peration     | Version:  2112                                  |
|   \\  /    A nd           | Website:  www.openfoam.com                      |
|    \\/     M anipulation  |                                                 |
\*---------------------------------------------------------------------------*/
FoamFile
{
    version     2.0;
    format      ascii;
    arch        "LSB;label=32;scalar=64";
    class       volScalarField;
    location    "600";
    object      T;
}
// * * * * * * * * * * * * * * * * * * * * * * * * * * * * * * * * * * * * * //

dimensions      [0 0 0 0 0 0 0];

internalField   nonuniform List<scalar> 
73792
(
9.16194e-12
1.81985e-08
3.912e-09
3.74858e-10
3.48081e-09
4.96519e-12
1.66425e-08
5.36416e-09
1.62193e-08
5.83156e-09
6.24852e-08
1.92173e-11
1.6253e-11
8.99701e-21
2.3604e-08
4.26901e-11
3.46287e-10
7.81092e-08
1.34062e-09
1.44541e-08
8.7004e-09
6.11388e-08
9.03135e-73
1.86936e-15
4.46458e-09
2.73557e-11
1.33978e-20
2.76035e-69
1.04241e-26
7.85076e-126
2.29816e-12
1.87687e-09
6.71364e-11
5.78793e-09
8.78243e-09
5.52222e-12
3.21821e-16
1.64494e-10
6.56957e-34
9.95827e-12
2.11492e-10
5.21244e-26
1.41071e-08
1.25482e-08
9.85908e-11
1.51932e-97
8.85855e-14
3.09127e-08
3.86756e-13
1.42429e-09
2.80201e-15
1.2528e-10
3.20016e-11
1.42906e-09
2.82728e-27
8.62036e-09
3.25754e-10
8.74668e-08
2.2498e-10
1.20714e-08
3.3966e-11
-9.83391e-125
6.70198e-10
1.76962e-09
1.84002e-08
2.21676e-08
2.3486e-10
5.9722e-14
2.54404e-08
7.86169e-10
2.70403e-10
8.49872e-09
6.40388e-11
3.43921e-68
1.11723e-07
1.01364e-11
6.6642e-10
2.16584e-13
4.63343e-09
1.83553e-08
5.21055e-09
1.24101e-13
2.37594e-08
1.14589e-10
3.17709e-10
1.80835e-08
6.45615e-09
1.1175e-10
2.38386e-09
3.79448e-08
3.83583e-10
8.7882e-12
2.04233e-08
1.08563e-08
7.56359e-11
7.30713e-13
4.52874e-08
3.77399e-08
4.37483e-46
8.41504e-15
7.66922e-08
1.20677e-15
3.46917e-16
1.20311e-67
1.47777e-11
6.63113e-09
8.08162e-10
5.83507e-15
3.00792e-16
4.20543e-11
2.7039e-16
2.53031e-33
3.21711e-09
1.21189e-123
1.56098e-08
1.79912e-15
3.42856e-16
9.84854e-09
1.33237e-11
1.60387e-08
2.47292e-09
3.86772e-08
2.37104e-09
1.71308e-14
1.08089e-67
3.55618e-11
1.42355e-09
2.17677e-08
1.05747e-08
7.54309e-09
2.73931e-08
7.94916e-08
1.23689e-10
1.02505e-71
2.08537e-08
2.41966e-10
1.41348e-15
1.53669e-09
4.10714e-10
7.74909e-11
1.046e-09
4.22783e-12
2.87144e-11
1.39563e-13
8.37874e-10
1.91243e-10
1.10657e-09
9.20319e-10
5.99684e-19
3.23155e-13
2.31316e-11
4.14611e-08
6.0986e-08
2.00357e-08
2.79542e-08
7.28728e-09
4.91893e-10
2.23745e-09
1.16521e-09
3.11352e-11
9.33076e-14
3.82687e-08
5.92402e-11
3.8243e-11
7.70579e-13
5.23333e-08
2.03498e-14
2.60898e-08
1.65224e-08
3.425e-11
1.41532e-10
7.39503e-30
2.63252e-39
1.45105e-09
1.85248e-28
1.45574e-08
9.40631e-09
2.17603e-08
1.72986e-10
3.81512e-14
1.41492e-09
3.0833e-11
1.6208e-10
3.04406e-11
1.86349e-25
7.18299e-09
1.1718e-08
3.74235e-10
2.85918e-12
3.0654e-08
2.67937e-09
3.15494e-11
2.47486e-09
1.95385e-16
6.65437e-09
7.1497e-12
1.43443e-09
1.30122e-87
6.8651e-17
3.55688e-08
-8.08272e-124
1.31085e-100
1.42592e-10
4.89508e-14
2.90677e-08
5.12677e-12
1.09142e-12
2.76976e-15
2.56242e-08
8.65766e-09
1.74932e-18
3.15118e-10
1.38176e-13
4.42067e-12
8.02829e-11
4.15896e-11
5.20436e-66
8.21177e-10
4.77941e-14
1.16392e-09
6.55503e-10
7.75481e-16
1.47804e-09
1.75484e-08
9.40707e-11
2.48561e-10
5.04544e-09
9.34387e-19
4.41944e-13
2.0095e-09
7.74156e-60
2.32159e-10
1.40204e-16
5.17168e-09
5.78753e-08
6.17762e-66
1.15503e-08
2.13435e-08
1.19106e-11
6.41898e-121
2.4309e-10
2.30159e-53
1.1449e-11
5.19535e-10
2.85937e-14
1.04757e-07
6.90517e-09
1.33951e-09
5.25423e-10
5.65877e-09
2.88984e-11
1.13376e-10
2.48129e-10
1.75832e-08
8.22067e-12
1.12467e-13
8.76667e-13
7.13954e-18
3.00621e-11
9.60282e-10
4.52476e-08
2.31674e-10
1.24818e-08
8.2078e-10
1.21057e-09
6.49734e-11
9.30444e-12
5.6337e-16
1.64086e-61
4.90062e-08
1.51628e-08
6.74483e-14
3.39042e-08
3.27686e-09
1.03333e-07
2.96194e-09
1.37165e-08
3.48565e-11
8.11516e-12
4.91673e-11
3.58811e-14
3.48101e-09
4.48444e-08
7.29296e-10
6.89941e-09
6.30741e-10
1.1174e-10
3.69465e-15
9.50192e-41
3.15029e-80
1.07985e-08
4.50022e-12
2.38871e-11
1.61782e-09
7.99849e-10
2.85925e-11
1.20242e-11
1.25293e-09
1.27673e-07
3.00944e-08
3.28748e-11
3.49117e-14
8.89788e-10
7.79806e-11
1.02417e-56
1.62356e-10
1.6037e-09
1.59385e-09
1.59625e-14
6.8702e-12
2.32982e-75
3.19693e-14
2.4473e-12
3.99828e-11
4.53779e-12
5.32659e-10
2.75693e-11
9.41412e-61
3.82883e-08
5.92369e-11
3.20821e-08
3.11546e-16
2.88425e-11
9.59567e-08
2.88599e-10
2.6497e-08
1.63992e-10
4.15796e-09
5.03252e-10
1.69779e-14
8.38374e-12
2.26417e-10
6.84393e-11
7.2385e-10
4.08999e-11
3.95918e-11
4.75007e-12
2.15079e-11
5.76295e-14
4.35329e-08
4.72716e-09
7.86392e-10
5.92244e-10
1.8096e-08
5.60387e-44
8.98238e-09
7.71391e-10
2.63663e-10
3.31344e-11
8.00784e-10
3.87596e-10
6.19692e-12
2.82984e-20
2.11033e-08
9.87114e-12
4.56893e-13
1.66603e-09
6.43563e-11
7.30859e-09
3.12059e-10
2.44617e-10
1.02313e-09
6.82312e-11
1.30885e-08
1.15601e-09
7.03725e-09
1.26152e-08
4.20712e-14
3.48922e-11
1.20596e-08
1.43849e-10
7.93598e-20
2.13243e-09
1.24151e-08
6.5678e-10
1.07641e-08
5.03567e-09
3.82162e-09
1.53456e-25
1.31261e-10
1.46055e-10
2.55774e-10
1.20399e-09
1.81547e-35
4.04256e-10
8.41109e-09
6.88899e-09
4.63979e-17
5.9555e-10
3.51473e-11
1.53763e-08
5.77342e-11
2.07506e-17
4.63016e-10
8.08582e-09
4.98962e-08
9.68474e-10
6.47084e-57
8.50938e-14
9.99212e-11
3.66503e-12
5.16679e-14
1.93492e-57
7.30239e-16
1.0495e-09
3.87703e-10
8.65075e-12
4.56729e-14
1.03588e-10
4.31419e-09
8.61301e-11
3.32926e-10
6.95857e-14
4.18253e-10
5.55251e-09
1.49874e-08
5.24156e-09
3.07739e-10
2.0818e-33
6.6003e-14
6.20807e-12
4.55074e-15
1.34275e-11
3.05896e-16
5.17997e-15
4.59696e-11
4.27945e-15
2.93041e-11
8.24784e-12
9.54809e-11
9.4552e-10
1.46629e-10
9.22636e-11
2.57464e-10
7.65818e-15
1.48189e-08
2.17119e-34
9.89625e-11
4.69533e-10
1.09789e-07
2.63986e-09
1.37543e-09
1.86039e-10
1.97718e-10
2.83023e-09
3.24299e-10
1.97189e-11
7.00647e-09
3.3767e-10
4.33973e-19
1.24323e-46
2.23677e-08
9.33657e-11
2.90017e-15
3.8088e-13
2.58755e-08
1.86189e-09
3.0788e-14
3.78687e-08
4.79107e-12
5.93181e-11
3.14294e-17
1.7516e-08
1.40236e-10
8.02577e-08
1.12763e-08
2.11713e-25
4.02597e-10
4.94606e-19
4.56213e-09
2.90686e-11
1.37376e-12
1.53193e-08
2.45176e-08
4.29549e-13
2.38047e-126
1.4889e-10
1.7952e-08
2.29005e-09
2.7747e-08
9.19565e-12
6.50404e-11
3.18853e-11
3.21646e-11
1.32577e-17
1.96316e-08
4.75936e-100
1.18539e-11
4.5494e-09
1.23242e-08
4.07226e-09
7.14181e-08
6.01516e-09
2.43676e-09
2.01154e-08
1.79177e-08
4.36736e-09
2.51976e-08
7.82234e-08
1.09137e-10
1.24221e-09
1.57778e-23
1.25514e-08
7.06816e-10
4.7649e-09
1.18357e-08
2.041e-10
1.78635e-12
1.38238e-09
2.81705e-41
3.93841e-15
2.40637e-08
1.05327e-08
6.57804e-09
6.81857e-12
7.68781e-09
3.96658e-15
6.92241e-10
2.90198e-14
9.57447e-10
2.0147e-56
1.53831e-09
6.23813e-08
2.77477e-11
1.63623e-08
8.48834e-10
4.59115e-09
2.80689e-08
1.26156e-10
7.97775e-12
1.55779e-08
2.07482e-16
1.00857e-10
1.50923e-16
2.76336e-08
2.72757e-08
6.16908e-10
1.46523e-09
1.79546e-10
6.34153e-10
2.59727e-08
1.71736e-15
1.32731e-14
1.94531e-08
9.34289e-08
1.97928e-15
1.72144e-08
3.40695e-10
1.47968e-10
3.66812e-20
2.89511e-25
2.34476e-08
7.94846e-10
4.558e-69
1.22372e-100
1.39626e-13
3.81568e-10
2.37827e-09
3.17141e-14
7.09035e-11
3.56048e-26
4.8089e-09
5.36504e-16
4.46149e-10
2.12713e-08
1.23288e-09
2.01774e-08
2.00821e-10
9.02894e-09
2.71693e-10
2.56354e-10
5.89366e-10
3.25469e-09
5.69638e-09
1.6517e-08
4.98683e-13
4.53557e-10
1.66521e-09
3.90934e-10
3.50656e-10
5.62841e-09
1.25014e-09
2.50943e-10
1.40236e-106
1.15808e-08
7.52796e-09
2.59992e-10
1.19666e-64
7.05966e-10
6.39474e-10
3.02148e-10
1.45931e-15
1.53368e-16
4.08271e-09
1.43078e-09
1.46524e-16
1.20925e-08
3.06156e-10
2.32714e-11
1.59829e-08
7.5106e-10
1.48309e-118
3.68591e-08
2.50002e-10
1.80035e-08
7.44763e-08
1.83489e-10
7.3079e-11
3.5127e-10
2.61828e-43
1.20686e-13
5.092e-09
3.47575e-11
7.82298e-09
8.68163e-11
2.78999e-08
9.16354e-08
3.83996e-09
7.29677e-19
1.56608e-09
2.04842e-105
1.22069e-10
5.85333e-09
5.53279e-100
1.86433e-09
2.83966e-08
6.76194e-09
3.85721e-10
9.39682e-14
2.43906e-11
6.24913e-10
9.32874e-10
7.57969e-12
5.39386e-10
7.21104e-10
2.61881e-10
1.10537e-64
2.32876e-08
4.94647e-09
4.33792e-28
7.1463e-10
9.74876e-09
1.23074e-10
5.82556e-10
2.82542e-10
9.07998e-10
3.50476e-11
7.09617e-09
4.52158e-09
9.39376e-10
6.20133e-11
2.42e-12
3.5812e-13
1.04718e-13
7.54195e-11
8.83674e-09
1.36239e-10
1.22192e-09
1.10829e-07
6.56282e-08
5.33461e-09
9.2264e-10
2.79086e-11
4.8874e-09
1.50017e-09
6.20826e-11
3.29276e-08
3.50491e-10
1.62423e-08
2.15975e-08
2.02343e-10
5.79356e-12
2.42033e-10
4.39943e-09
3.33374e-10
8.5522e-09
6.77756e-10
4.78724e-09
1.00035e-10
4.06807e-13
3.5472e-11
6.82281e-16
2.21665e-63
1.25845e-08
4.97458e-11
3.92274e-14
1.77323e-09
4.91087e-10
3.40218e-12
4.05087e-12
4.36036e-10
6.36769e-09
1.6013e-15
2.80252e-10
1.25356e-09
1.09094e-08
6.55484e-09
1.70218e-09
1.19653e-11
1.19868e-10
3.68064e-09
4.31558e-46
3.11607e-09
4.82295e-11
4.7086e-11
5.95392e-09
9.93033e-08
2.34792e-08
3.49225e-14
1.01857e-11
7.85417e-13
7.61059e-14
1.69517e-10
4.0214e-11
1.22243e-11
1.9553e-13
3.19062e-12
2.20618e-11
2.87872e-33
4.5285e-09
1.96078e-10
3.68377e-13
1.29447e-09
5.9932e-08
1.45839e-63
3.8954e-08
3.09416e-08
1.1216e-11
1.07607e-08
3.13207e-09
7.98131e-10
1.34436e-10
4.81367e-09
2.67774e-15
5.56274e-12
5.95542e-11
3.07024e-10
8.59003e-12
1.85756e-09
3.75129e-24
8.63146e-11
7.29412e-08
2.29136e-15
2.01602e-09
4.65577e-11
3.47501e-08
3.87783e-11
7.75747e-10
4.92592e-14
1.71918e-10
1.62637e-125
1.30723e-11
3.24984e-54
3.17575e-10
9.37707e-12
6.96795e-55
2.83374e-11
7.52148e-39
2.69533e-08
2.83103e-11
5.48745e-75
6.73007e-10
8.76488e-45
4.15374e-08
1.36862e-09
6.56666e-52
3.70056e-51
9.93238e-09
6.65347e-18
3.08304e-14
1.95256e-10
4.21975e-14
4.7303e-11
2.07561e-28
3.51769e-12
5.71597e-15
4.40668e-09
8.3978e-10
1.12773e-75
2.57221e-11
2.76262e-11
6.95848e-09
9.15339e-13
5.46502e-24
1.05153e-09
8.29306e-20
1.35009e-10
3.63507e-08
5.77716e-08
3.21661e-11
3.85837e-08
2.90578e-11
9.10271e-09
1.21154e-10
1.16275e-09
2.36917e-08
3.20884e-11
9.16853e-14
2.68498e-11
4.59347e-08
5.43116e-11
7.82271e-18
4.6835e-09
1.40916e-24
1.19957e-13
8.49732e-11
5.98083e-16
7.96022e-11
1.42817e-08
5.95548e-10
1.32329e-10
8.52296e-11
3.89867e-15
3.22946e-11
2.4924e-10
2.03291e-08
7.04886e-08
6.39558e-09
1.19564e-09
4.45591e-14
2.4977e-09
6.30396e-11
5.30953e-09
3.97017e-10
2.792e-11
3.74637e-10
7.90587e-13
2.19022e-11
9.38945e-09
1.84231e-24
2.91075e-10
5.25542e-08
3.27327e-09
1.62171e-10
1.14911e-10
7.61808e-09
2.31204e-08
5.23699e-10
4.00821e-11
9.04198e-10
1.43107e-86
2.60443e-65
1.00633e-09
6.06134e-10
4.75638e-11
1.0949e-08
4.10672e-16
1.38083e-10
4.29301e-09
2.48295e-17
5.9962e-09
4.01503e-08
5.77183e-101
2.83098e-10
2.82388e-11
9.54749e-97
4.87753e-09
3.69504e-09
3.99183e-20
2.44619e-09
2.97592e-09
3.30252e-10
8.5266e-20
3.02612e-08
6.89237e-26
4.73587e-11
2.0528e-11
1.84144e-08
7.38527e-10
2.14355e-10
2.96507e-14
1.46233e-17
8.05354e-09
2.73946e-10
1.88534e-10
2.48115e-08
1.61264e-09
5.84561e-10
5.51263e-20
5.12216e-11
1.13779e-07
6.50583e-12
9.97624e-09
6.22775e-10
6.7728e-13
5.49803e-10
5.82664e-10
2.38335e-09
3.18941e-15
7.1779e-10
3.68652e-09
5.35053e-28
4.8267e-17
1.5856e-09
1.10678e-32
1.04318e-15
6.90149e-14
1.17823e-08
3.95146e-11
8.9713e-10
1.40473e-10
7.3461e-20
1.73339e-08
2.71831e-09
5.95946e-11
8.11018e-09
1.52079e-09
1.53537e-10
6.58278e-09
1.07795e-09
2.00691e-15
1.53521e-16
3.92317e-09
6.50778e-08
6.13726e-09
2.38207e-10
3.53633e-11
3.25952e-11
5.85289e-08
1.42836e-13
2.67231e-09
4.15083e-11
5.50399e-09
1.73993e-28
3.34012e-11
9.4188e-10
5.54943e-119
5.25642e-83
5.20974e-11
3.65989e-20
6.07311e-09
2.17204e-13
3.59328e-10
9.18213e-10
5.87417e-09
3.07832e-08
4.6315e-08
5.58157e-37
1.48951e-08
3.99343e-08
1.0777e-11
6.71972e-09
2.91207e-13
3.01241e-12
4.29747e-10
1.1322e-07
5.75169e-09
3.32459e-11
2.5241e-17
6.57532e-09
1.82135e-10
5.30212e-08
3.46357e-10
2.32494e-15
3.81558e-11
1.1035e-31
1.47196e-07
5.71161e-12
3.24052e-09
1.08043e-09
3.69364e-11
4.19669e-16
8.2343e-10
5.05613e-14
1.07688e-09
1.22131e-08
3.01708e-08
8.5544e-09
5.29445e-12
1.78073e-11
9.34473e-11
6.10918e-09
3.45303e-14
1.16837e-13
3.66521e-10
1.116e-07
5.28692e-09
2.31397e-12
9.31047e-10
3.36215e-10
1.04542e-10
4.12511e-09
2.44936e-11
1.26854e-11
1.84523e-10
4.02195e-82
1.79194e-09
3.47414e-51
5.32238e-08
1.43667e-08
2.79027e-10
1.36402e-08
1.98724e-08
4.69458e-11
2.09243e-08
1.86411e-09
1.60736e-10
6.80379e-11
4.03879e-10
2.57333e-10
9.52207e-103
1.78739e-11
1.79719e-08
4.95271e-10
1.35122e-08
8.26031e-32
4.27266e-11
1.71703e-125
5.67743e-09
4.0676e-09
1.70422e-10
2.4663e-14
2.20183e-14
2.43232e-11
5.89178e-16
6.72521e-10
3.2825e-08
3.63702e-12
7.45934e-11
3.3627e-16
7.78212e-09
1.4256e-08
2.50333e-08
1.51046e-42
2.27965e-08
1.69536e-09
3.4272e-11
3.31871e-10
1.53056e-10
2.68429e-09
4.61159e-09
1.64641e-08
6.76841e-12
4.62258e-11
7.31687e-09
1.26763e-08
1.06636e-11
1.16304e-105
4.41945e-12
8.91978e-09
4.33507e-12
9.86921e-09
2.44533e-12
4.74539e-10
9.11506e-09
3.72096e-08
6.94417e-10
5.62817e-74
2.04054e-09
8.62543e-12
4.51743e-11
9.57795e-08
3.30647e-11
3.6583e-13
1.08419e-08
1.99789e-08
5.426e-11
2.80513e-11
8.74852e-09
1.92063e-09
1.00705e-08
3.74184e-11
6.36432e-11
3.25249e-10
1.43511e-14
3.44896e-10
1.09495e-11
1.39155e-07
1.54129e-09
4.21732e-09
3.3512e-11
5.48351e-15
1.2183e-09
7.58686e-10
4.68114e-11
1.14122e-10
1.79187e-08
8.97144e-10
1.86214e-15
2.7126e-10
1.06998e-07
4.97724e-11
6.31793e-11
8.66917e-09
7.22278e-09
1.44505e-70
1.46363e-08
1.24704e-08
8.0933e-10
1.07032e-16
9.10196e-08
2.06164e-11
7.75759e-11
4.9637e-08
1.4955e-10
5.86293e-08
1.67134e-09
7.72164e-14
1.64114e-12
2.74732e-16
3.33385e-09
1.53731e-15
2.21772e-11
1.13235e-11
1.15973e-10
4.96851e-09
1.94061e-115
1.97564e-10
1.63983e-09
1.09928e-10
4.71917e-12
2.20814e-12
1.02255e-09
2.96672e-11
5.20808e-75
2.3166e-08
1.31909e-07
3.41694e-08
2.59658e-16
4.98095e-09
4.53166e-18
1.1613e-14
8.7318e-11
4.61876e-10
1.39454e-08
2.51744e-09
9.7316e-14
1.67916e-09
7.65654e-09
2.65242e-10
2.79487e-09
8.25832e-10
1.98311e-10
1.14258e-09
2.84217e-14
9.64051e-24
7.20822e-08
4.03988e-20
6.08886e-19
1.15768e-09
3.28451e-09
1.07498e-10
3.12917e-16
6.85273e-11
5.30336e-10
1.91049e-10
2.20296e-83
1.21541e-17
6.66193e-81
8.58087e-12
2.22435e-08
1.12972e-07
1.07645e-12
1.68903e-09
9.20048e-10
2.78183e-08
2.16394e-09
1.3375e-13
6.53542e-10
9.54479e-10
3.96246e-11
5.25648e-10
7.25443e-11
1.3543e-08
5.46736e-12
2.79522e-15
4.87682e-11
6.46407e-08
6.74749e-11
4.31651e-08
5.23215e-10
6.73568e-09
1.21973e-08
3.62721e-15
1.86013e-08
1.46844e-08
3.66679e-14
2.20242e-13
5.79687e-08
3.04824e-09
1.05369e-08
1.65024e-08
1.92074e-12
1.52258e-08
3.35275e-70
1.054e-09
1.65483e-09
4.44699e-08
2.50063e-11
3.35771e-10
2.68945e-84
8.12937e-09
8.30276e-15
8.97508e-34
1.94404e-09
1.15709e-08
5.83865e-10
1.32609e-10
6.70994e-08
5.35846e-120
9.28069e-10
7.0487e-10
3.10796e-09
3.29907e-10
6.79623e-11
1.32659e-09
1.77292e-14
1.66318e-09
4.73164e-09
1.28946e-15
8.8195e-10
4.5286e-09
2.98573e-09
1.73952e-09
5.37828e-08
7.97769e-12
4.42948e-49
1.86636e-11
1.30938e-09
9.31888e-11
4.6166e-10
1.31708e-09
7.7464e-08
3.6e-21
4.57238e-62
7.76191e-09
1.18824e-11
7.29354e-13
4.39903e-08
5.92143e-11
8.70321e-09
3.40653e-09
5.27475e-11
6.42531e-11
2.69814e-79
3.90747e-10
4.06107e-09
1.29213e-10
1.06806e-07
5.99116e-12
2.42062e-08
1.68537e-09
2.39589e-13
1.92999e-08
2.61441e-09
5.8911e-10
2.03863e-09
6.65098e-11
6.182e-09
4.59009e-10
5.32724e-09
1.19091e-09
6.29975e-08
1.99884e-11
4.5797e-09
4.36693e-09
6.109e-10
6.84723e-08
1.67681e-08
7.16847e-09
2.08968e-10
1.48252e-10
4.25092e-09
2.05108e-12
7.10766e-44
5.2478e-09
1.66389e-10
3.15001e-12
5.86819e-10
4.51455e-10
1.51616e-09
2.03705e-10
7.40888e-15
5.31597e-08
5.25927e-58
7.50056e-08
1.58085e-09
4.26776e-09
1.81785e-28
4.50911e-10
6.68439e-10
1.58922e-09
2.6637e-10
6.56002e-10
1.30191e-14
2.75139e-09
9.68416e-09
3.61146e-08
9.08068e-12
2.28192e-11
2.47629e-09
3.867e-11
3.35611e-11
3.70129e-68
8.15244e-09
7.83039e-63
1.61028e-08
3.28985e-11
1.74409e-09
1.06392e-10
9.18735e-11
4.82147e-25
8.91493e-21
5.19117e-18
3.32431e-11
9.43117e-08
5.43213e-09
2.74492e-28
4.93973e-17
4.28446e-10
1.071e-10
3.31304e-10
4.60389e-12
8.04691e-11
1.63048e-20
5.5848e-15
6.21596e-10
1.56566e-14
4.67947e-10
6.44688e-33
1.15132e-119
4.79006e-12
4.61694e-09
9.03755e-09
4.76118e-16
1.28361e-13
9.32704e-13
7.84878e-09
6.7362e-24
8.94573e-13
1.46923e-08
8.90721e-09
7.14613e-17
1.87847e-09
1.43608e-10
5.6021e-10
5.41847e-56
2.19266e-09
4.54836e-43
1.27659e-09
7.71892e-16
4.37521e-09
1.01627e-07
1.00807e-08
3.24887e-09
6.34285e-13
9.36605e-13
5.00009e-10
5.19191e-14
1.43172e-09
5.48388e-08
2.68362e-09
3.42677e-09
1.14697e-18
1.16305e-09
3.43226e-12
2.69228e-09
2.01883e-14
3.16812e-11
2.41719e-11
1.01097e-09
9.39667e-08
1.90605e-09
7.45691e-09
7.61949e-10
7.6839e-09
2.01897e-09
4.05537e-47
3.84705e-10
5.14651e-28
2.80703e-10
2.02727e-09
6.54152e-11
8.51749e-09
9.48902e-09
3.39178e-09
2.49834e-11
1.22739e-08
7.68198e-09
3.40207e-12
7.18381e-50
3.88506e-20
1.15584e-07
3.82441e-09
5.27301e-11
5.55109e-09
1.52698e-14
4.11259e-12
5.55081e-09
5.22817e-10
2.01934e-08
5.15081e-09
1.31978e-11
6.87332e-57
2.00124e-12
1.32975e-10
5.27946e-18
1.68407e-11
4.26667e-10
3.6788e-110
9.45422e-10
3.94952e-08
5.32284e-11
4.53814e-10
5.17475e-10
1.23488e-08
7.05811e-10
9.58761e-29
2.25333e-09
5.00136e-09
4.04412e-10
6.83956e-09
3.23892e-46
1.56945e-09
1.12644e-56
5.21528e-08
1.05944e-09
2.17014e-16
2.84116e-33
1.99219e-56
3.03071e-10
1.35805e-09
1.44229e-08
3.5091e-09
1.14336e-07
4.94714e-29
1.89057e-12
1.20157e-10
2.61487e-08
1.3641e-11
4.03159e-08
4.93791e-24
1.18075e-11
6.55747e-11
1.09226e-08
5.91753e-09
8.29026e-16
1.62318e-15
1.01641e-08
2.81137e-18
2.66808e-10
4.67388e-10
8.26007e-09
4.15032e-11
2.8757e-10
5.97585e-09
1.67261e-12
2.11431e-10
6.78313e-11
3.86132e-11
7.7573e-09
1.15965e-09
4.57397e-08
4.01728e-12
3.61523e-11
1.62291e-12
1.46597e-22
6.78043e-09
2.37346e-08
3.49479e-10
2.92309e-10
1.48881e-08
8.44174e-11
2.58599e-09
1.02457e-07
2.41471e-10
1.01928e-09
8.2084e-11
7.77085e-11
1.28037e-10
3.13159e-51
1.16685e-09
5.98182e-11
1.019e-08
-2.42289e-107
3.54026e-10
4.4314e-10
1.62545e-10
2.65519e-09
3.27236e-09
2.79276e-11
1.09276e-08
1.62381e-57
2.70489e-08
1.59888e-09
3.76925e-10
5.8986e-10
7.12887e-10
8.4923e-09
1.43276e-11
7.11779e-10
8.80686e-08
3.58159e-24
1.71276e-10
8.91822e-11
2.90408e-08
8.07331e-08
3.20039e-11
2.82873e-10
4.02122e-11
1.83824e-10
1.53372e-08
3.71767e-11
3.12971e-09
1.49814e-10
7.91954e-11
5.84478e-11
1.62913e-08
3.82742e-10
8.46093e-09
4.51844e-08
3.54524e-17
1.64465e-08
4.77302e-20
4.16328e-08
2.20232e-10
2.68059e-09
1.19791e-50
2.46515e-10
2.23627e-14
2.69272e-29
2.76515e-16
1.94061e-09
2.06642e-12
1.70716e-105
8.52644e-11
3.7243e-08
1.1245e-07
3.58633e-14
2.66482e-19
5.3072e-09
7.19695e-09
4.05504e-08
1.68043e-88
1.56551e-10
2.2114e-11
3.09065e-12
1.87771e-09
1.12559e-11
6.5193e-08
3.57974e-08
1.6051e-16
6.2953e-11
4.74072e-09
1.47643e-10
3.19432e-29
1.03697e-11
1.74087e-08
1.29674e-09
1.53409e-10
3.85082e-16
2.27954e-11
1.54781e-08
3.17921e-09
9.66027e-11
1.28528e-10
1.0911e-08
3.19138e-13
1.20071e-16
1.23047e-13
1.20705e-10
6.11505e-08
8.20836e-12
1.33721e-08
2.97936e-11
1.17301e-08
1.39441e-08
1.21061e-11
1.04261e-13
2.21731e-09
4.72155e-08
1.53305e-15
5.2029e-09
1.06626e-09
3.9039e-11
5.03698e-10
1.40585e-09
2.34391e-13
1.02271e-07
1.18693e-10
2.62123e-10
5.33707e-13
1.6829e-10
9.4831e-11
7.6218e-09
8.64206e-11
5.69204e-08
1.09266e-11
4.83855e-10
1.22551e-09
9.73411e-09
4.58922e-08
3.45169e-10
6.9847e-08
1.12395e-08
9.76054e-08
8.88738e-09
1.16475e-07
3.7263e-08
9.31002e-09
8.02866e-11
2.45136e-10
1.01341e-09
3.4808e-09
9.81598e-10
3.48262e-09
5.12559e-11
4.22487e-09
4.36017e-25
2.39942e-15
2.04405e-25
7.73593e-11
5.80416e-12
3.46544e-10
2.95656e-08
1.40277e-09
3.23192e-11
3.6904e-09
3.2719e-11
8.69868e-11
2.08715e-09
5.06032e-08
1.21188e-15
1.06165e-09
7.48068e-11
9.92928e-11
1.96863e-10
5.35531e-11
1.3004e-16
4.12952e-08
9.05333e-09
1.04449e-07
4.02099e-40
1.56871e-19
2.07855e-10
4.49644e-09
3.87663e-09
2.1353e-10
8.10739e-10
1.0999e-09
2.36802e-12
2.94149e-08
2.11331e-10
2.74912e-08
1.53177e-40
6.52755e-09
4.84224e-12
2.33099e-08
9.6234e-12
3.03428e-09
3.98779e-11
-1.48786e-123
1.11681e-09
4.17391e-08
9.27544e-11
2.14158e-09
5.12761e-09
3.01911e-09
5.70034e-11
5.48752e-10
1.08217e-10
1.78932e-11
4.39734e-14
1.85999e-08
4.73701e-08
5.97285e-09
5.98208e-11
1.18906e-35
2.51991e-09
1.30019e-08
2.10921e-10
2.96934e-08
2.7974e-10
1.30061e-10
2.60999e-10
9.80943e-11
3.77508e-16
8.41416e-11
1.24108e-117
1.29803e-08
1.17438e-08
1.11764e-10
1.92392e-09
4.07043e-10
3.08284e-08
2.83305e-11
1.26376e-11
8.17971e-11
1.46495e-08
1.82752e-09
2.93707e-11
8.35965e-09
7.62662e-11
3.31273e-08
4.65066e-15
1.52597e-09
2.66337e-84
3.04566e-08
1.59903e-09
1.07683e-10
3.82847e-10
8.86158e-16
6.25235e-10
5.66596e-08
1.01921e-07
8.99676e-10
5.54156e-11
1.87376e-09
1.14484e-09
3.35043e-85
3.4145e-08
1.6018e-09
9.44602e-29
1.97978e-08
4.55749e-09
8.43572e-14
2.95146e-08
1.31692e-08
8.58163e-12
3.7443e-09
1.89095e-19
1.63676e-09
4.09285e-10
7.38524e-13
2.97588e-10
3.01737e-10
4.23918e-08
2.20692e-11
3.98273e-09
2.713e-11
2.61877e-10
5.38717e-09
4.23982e-11
2.61201e-13
1.05289e-12
1.94784e-08
3.85997e-24
8.25799e-16
1.18426e-09
1.26491e-08
1.27899e-08
6.7524e-11
2.73971e-08
6.09937e-08
1.6606e-09
9.15405e-09
1.74803e-08
4.66472e-08
1.8272e-09
5.45301e-09
9.30173e-12
4.00196e-16
1.58817e-08
3.49946e-11
6.0341e-11
1.14398e-07
3.30755e-11
2.32307e-12
9.05542e-11
1.00635e-08
6.9429e-08
1.03494e-11
2.8406e-09
2.9313e-18
4.43204e-12
2.9284e-09
1.4998e-07
6.16854e-11
1.50542e-10
1.49761e-08
1.72383e-08
4.62021e-14
3.84281e-10
4.43546e-68
1.78353e-08
8.33482e-11
2.91438e-10
1.02932e-07
8.84122e-10
1.35545e-09
1.90237e-15
1.27778e-08
1.36428e-24
1.08125e-61
4.94256e-62
4.3093e-10
2.28846e-15
4.52233e-09
1.67479e-10
3.5615e-12
6.6936e-13
8.0515e-09
1.96294e-12
2.09255e-67
1.92472e-08
9.2361e-14
1.06687e-10
8.29671e-10
1.63583e-08
2.17708e-14
4.20725e-11
6.18051e-10
9.03082e-09
2.703e-11
6.05664e-24
1.09181e-10
8.66192e-11
2.83581e-29
1.56906e-10
1.27232e-08
1.34829e-17
1.93671e-08
4.81187e-16
2.86325e-10
1.55668e-33
1.04619e-13
1.76913e-08
1.45971e-09
1.27243e-09
2.09939e-15
2.00963e-10
3.01911e-24
6.63152e-09
2.77511e-08
3.12714e-10
7.52128e-16
1.51275e-10
2.68049e-10
3.21736e-10
1.19146e-14
4.61657e-09
8.36051e-10
5.9448e-09
3.21699e-11
9.86227e-20
2.74593e-10
3.28014e-10
1.46507e-09
3.50193e-25
1.13243e-09
5.64136e-09
2.61166e-38
6.0044e-08
1.83738e-104
6.39564e-08
1.05917e-11
1.83502e-67
3.15395e-10
2.52352e-11
4.98178e-13
3.92037e-20
5.51769e-09
2.72469e-10
2.34603e-11
1.03762e-10
7.26641e-13
6.49985e-16
6.97e-11
2.77043e-09
1.17771e-10
2.13877e-10
8.31791e-14
8.53714e-13
5.9872e-11
2.54948e-08
3.41775e-08
1.91145e-08
3.40098e-10
8.24075e-11
2.31334e-24
2.57284e-12
1.01882e-09
1.30809e-08
1.5687e-09
1.845e-09
4.78738e-17
4.49379e-09
9.83248e-102
2.09719e-16
7.78436e-38
1.30116e-11
2.0485e-08
5.12912e-12
4.70319e-17
3.00263e-10
6.12876e-10
9.30025e-08
3.86584e-09
1.37611e-11
1.04026e-24
4.49844e-09
4.91374e-09
3.95576e-10
1.78976e-10
1.82914e-10
3.47198e-10
4.15894e-08
1.03976e-08
2.08443e-08
1.04548e-09
3.97971e-09
1.81229e-11
1.42226e-64
5.71159e-17
1.3821e-08
3.6301e-62
1.99198e-11
3.54665e-08
2.38325e-68
2.08013e-09
4.1639e-09
4.14146e-09
5.50843e-12
7.74405e-08
4.35468e-11
7.09269e-09
5.38507e-12
1.14317e-08
1.84735e-11
7.95723e-10
4.9147e-10
8.32761e-63
1.28034e-08
1.72226e-08
1.27577e-08
5.22133e-16
2.73438e-10
2.40364e-38
1.34389e-09
1.2404e-10
9.70357e-10
5.46304e-09
1.4565e-09
8.08421e-11
1.40197e-29
1.26936e-08
2.60901e-10
3.72196e-08
1.94307e-08
6.97901e-09
2.94485e-09
6.63907e-103
1.69832e-09
3.34341e-08
2.87916e-08
1.22389e-09
9.04728e-08
2.31463e-08
6.46854e-08
4.5306e-10
1.18178e-09
7.87466e-11
2.27743e-61
1.93854e-11
2.19668e-10
6.16239e-08
5.71012e-11
4.51652e-11
6.97227e-10
3.89499e-08
7.89573e-09
5.52084e-10
4.44364e-08
3.29674e-09
2.44897e-08
1.08001e-10
2.23131e-12
5.31462e-09
2.95041e-10
1.4352e-15
1.48604e-08
2.98004e-09
8.41832e-09
5.88423e-11
2.94399e-08
6.5738e-21
7.65846e-35
1.72664e-09
6.36894e-10
6.68348e-10
3.73719e-09
2.5767e-09
1.91069e-14
2.27456e-08
1.4091e-104
2.29766e-29
3.1797e-10
1.10951e-08
6.51881e-10
2.48639e-08
1.34319e-10
1.74939e-09
2.24315e-09
9.86355e-08
2.5922e-08
4.8572e-10
7.5775e-09
8.64161e-09
4.05957e-10
1.61806e-08
6.09056e-15
5.79107e-12
7.48946e-20
1.31054e-11
1.01896e-38
5.66906e-11
8.04013e-11
2.23793e-09
1.00383e-07
5.48642e-09
4.64176e-10
1.13545e-08
2.49928e-15
6.43517e-20
5.4933e-10
5.82183e-09
6.4798e-10
5.74374e-10
8.02478e-10
1.52522e-11
2.37747e-09
5.17432e-12
4.6257e-14
4.31199e-10
2.48424e-13
1.22437e-09
1.10174e-08
1.58576e-14
2.50622e-11
6.53684e-20
4.94401e-12
1.63171e-09
7.73828e-13
5.16148e-14
3.36271e-12
1.29784e-08
4.65155e-08
4.15588e-20
5.35326e-09
1.36306e-11
2.72829e-65
1.89797e-09
3.67306e-12
8.08649e-09
1.95032e-14
1.96378e-15
7.77951e-11
3.32993e-10
6.92325e-09
7.00154e-08
5.66088e-09
5.08517e-69
5.71938e-10
2.22109e-08
3.77102e-09
7.7425e-11
6.04336e-24
2.14346e-09
4.83186e-121
1.2557e-09
4.83898e-09
1.91096e-10
8.80974e-11
9.33479e-09
8.58974e-11
1.48237e-09
6.8578e-10
3.75686e-11
2.66117e-11
6.94877e-61
8.87816e-08
6.24853e-10
6.38016e-09
7.11851e-34
2.16677e-10
4.73122e-09
9.91265e-09
5.92285e-29
9.611e-08
3.70514e-11
1.03111e-07
1.14002e-07
6.42307e-10
6.16129e-08
9.5093e-09
9.09635e-11
1.08255e-10
7.07078e-09
1.59076e-11
5.9888e-14
1.18872e-09
8.71943e-09
2.26364e-09
2.14416e-09
3.75234e-08
8.45462e-10
7.94808e-10
6.50464e-08
7.56425e-09
1.0326e-09
1.09025e-10
8.5201e-15
1.71925e-08
8.60555e-09
5.90513e-12
1.09231e-09
3.27739e-09
3.54035e-69
1.31602e-10
6.14766e-12
2.18598e-12
2.47843e-24
6.04202e-09
7.3768e-09
1.37448e-15
3.80048e-11
1.48704e-10
2.50723e-10
4.78892e-11
7.35881e-11
8.54517e-10
4.28066e-24
6.78518e-16
3.56883e-09
1.27471e-09
1.03491e-102
7.31767e-09
2.88639e-15
2.71636e-11
6.75984e-09
6.61361e-10
8.18909e-11
7.99919e-11
7.89596e-38
3.16437e-20
2.37754e-09
5.4219e-10
8.70572e-34
1.42563e-15
6.21531e-10
2.893e-19
3.96133e-10
3.93751e-10
3.12915e-11
7.2179e-10
3.40017e-25
1.49532e-11
8.34191e-13
4.83741e-09
5.41744e-10
1.61778e-14
5.17449e-08
1.06545e-08
4.05047e-10
1.86634e-10
1.65578e-10
-3.89558e-123
5.90899e-10
9.2237e-10
1.10803e-08
6.14746e-09
3.25972e-09
1.46331e-09
9.45153e-25
1.01711e-09
8.33053e-36
7.75804e-13
1.24767e-09
1.89792e-99
2.24808e-09
1.24533e-08
9.19615e-10
5.99638e-10
5.11938e-09
3.59092e-08
1.0228e-09
1.01031e-07
1.17326e-10
2.93214e-11
6.68406e-10
1.14989e-122
1.45465e-14
7.18251e-08
3.44295e-11
9.99397e-12
3.02121e-12
6.67676e-09
2.21069e-12
1.8269e-09
1.0439e-11
8.5593e-10
4.74337e-09
9.43185e-09
2.66204e-10
1.07316e-09
1.4929e-09
6.90775e-16
5.20523e-11
2.19461e-12
3.58763e-16
6.00417e-10
3.49703e-10
3.97996e-09
4.75407e-09
1.25287e-09
3.56247e-16
7.06014e-09
3.15877e-11
9.01672e-10
2.54854e-11
3.78333e-09
1.51926e-15
7.56789e-11
4.02094e-09
3.20409e-09
1.12083e-08
7.99945e-12
7.58146e-09
4.73515e-11
3.30466e-09
5.48695e-25
1.89306e-10
3.577e-08
2.36841e-14
3.94627e-11
2.75152e-10
1.22497e-08
3.62105e-11
1.09999e-14
3.81853e-08
1.50834e-09
1.50604e-11
5.03267e-09
5.99782e-19
6.21456e-10
2.53786e-08
2.54544e-10
1.14412e-10
2.15753e-11
3.95771e-21
5.93705e-12
3.48261e-09
1.21644e-09
1.77456e-13
6.13195e-08
5.18207e-08
8.49988e-08
4.12412e-15
6.55458e-09
2.57315e-08
3.19678e-11
1.69585e-08
8.52143e-11
5.65107e-15
8.07033e-16
1.07719e-10
2.28263e-21
4.56623e-16
1.96537e-13
1.0375e-08
2.38703e-08
4.11154e-10
2.14898e-12
5.54524e-10
1.75544e-10
4.82889e-12
4.19521e-16
4.48576e-09
2.43174e-10
4.55774e-09
7.78383e-08
7.63258e-09
6.83027e-76
2.63553e-09
2.96384e-11
6.73186e-11
9.59636e-12
1.85703e-09
1.45832e-10
5.8873e-80
2.33553e-08
2.77842e-08
1.5983e-09
3.90877e-19
7.30746e-10
3.65683e-10
6.21616e-09
5.88877e-10
2.67287e-09
1.76238e-08
7.00436e-11
6.4699e-81
2.35245e-13
1.35456e-11
2.79544e-10
5.50276e-09
6.20096e-08
2.54004e-08
7.85307e-17
1.78495e-09
5.75136e-09
1.82388e-08
3.21966e-16
4.19692e-10
1.75148e-89
3.9017e-10
3.14264e-09
2.78789e-14
2.69672e-15
3.19191e-08
4.97779e-11
5.2876e-09
1.50165e-16
1.63174e-08
1.47864e-08
1.27304e-09
7.04912e-09
9.58303e-09
9.36219e-10
6.53977e-10
3.29131e-13
2.61026e-12
1.06867e-09
3.1864e-10
2.40147e-09
1.2886e-09
1.15739e-08
2.74368e-11
1.00979e-52
4.34917e-70
4.41946e-08
6.27608e-09
8.39841e-10
3.16597e-09
4.28943e-09
1.76529e-38
5.23631e-10
3.77195e-11
3.19494e-12
1.93711e-08
1.06128e-11
1.06938e-11
1.41555e-10
1.12713e-10
3.42461e-33
7.86773e-10
4.58436e-11
6.12064e-133
3.84882e-11
2.85639e-09
6.08136e-10
2.76388e-16
2.11791e-09
9.71187e-10
1.23653e-08
3.21082e-11
1.61459e-10
1.4506e-08
3.25673e-21
1.29003e-12
1.43018e-08
4.89136e-09
1.85945e-10
1.35516e-08
5.13676e-11
1.50029e-37
1.10979e-08
6.39103e-10
9.32549e-10
1.28174e-10
1.07072e-09
3.57399e-10
4.26291e-09
3.87448e-13
9.81318e-13
3.43754e-13
1.32579e-08
5.3895e-09
8.05059e-08
2.40651e-08
2.56358e-70
6.47082e-10
3.9139e-14
1.07449e-10
2.92886e-11
3.43365e-10
5.13968e-12
3.35973e-14
4.06618e-10
1.5137e-16
6.66239e-08
2.01208e-08
1.51567e-09
5.7172e-08
1.71628e-08
2.37488e-13
1.34518e-10
1.20673e-09
1.70752e-10
2.7725e-13
1.41775e-08
5.40639e-10
1.42932e-08
2.39021e-08
6.67265e-12
1.34738e-10
9.98609e-47
1.27788e-08
3.95771e-09
2.38205e-15
1.05252e-10
6.5107e-12
3.53405e-09
4.16961e-09
2.80125e-10
5.24652e-16
2.91366e-09
9.57532e-09
2.14342e-15
2.06234e-09
3.37486e-09
3.9827e-11
5.79357e-08
2.87838e-16
2.46313e-08
1.62571e-15
1.74493e-08
1.14701e-23
5.61728e-11
8.92155e-09
3.35645e-10
1.13888e-07
2.40567e-14
8.38919e-09
1.47412e-12
9.41847e-09
5.00079e-11
2.20507e-11
1.80836e-10
5.49994e-08
3.68554e-09
5.26945e-35
4.89505e-11
3.27188e-11
6.99796e-08