/*--------------------------------*- C++ -*----------------------------------*\
| =========                 |                                                 |
| \\      /  F ield         | OpenFOAM: The Open Source CFD Toolbox           |
|  \\    /   O peration     | Version:  2112                                  |
|   \\  /    A nd           | Website:  www.openfoam.com                      |
|    \\/     M anipulation  |                                                 |
\*---------------------------------------------------------------------------*/
FoamFile
{
    version     2.0;
    format      ascii;
    arch        "LSB;label=32;scalar=64";
    class       volScalarField;
    location    "10";
    object      T;
}
// * * * * * * * * * * * * * * * * * * * * * * * * * * * * * * * * * * * * * //

dimensions      [0 0 0 0 0 0 0];

internalField   nonuniform List<scalar> 
73792
(
-2.18171e-68
-0.117394
-4.09235e-16
-1.28193e-37
-3.97283e-17
-1.07094e-64
-0.5229
-1.40127e-12
-0.0224113
-5.22283e-09
-6.36561e+06
-3.35297e-62
-4.71283e-60
7.36397e-78
-23.6922
-4.08824e-55
-1.42287e-36
-1.4038e+07
-3.59166e-24
-0.00190203
-4.38998e-08
-4.85164e+06
-2.69716e-258
6.29968e-59
-7.53241e-13
-1.50062e-60
-1.96685e-85
-1.33135e-251
1.60106e-114
0
-5.18531e-79
-1.067e-21
-3.0549e-52
-4.0447e-12
-6.38035e-08
-3.13456e-63
-2.7658e-130
-6.82896e-44
-2.84902e-130
-6.5031e-68
-9.31501e-41
-4.61114e-107
-0.00132139
-0.00389618
-1.56199e-48
1.4822e-323
2.28993e-74
-1199.53
1.12756e-57
-1.80737e-25
-3.2992e-80
-3.91069e-45
-2.96357e-59
-2.75408e-25
7.13366e-117
-2.39661e-08
-1.61537e-37
-1.70448e+07
-3.19693e-40
-2.70733e-05
-8.58085e-56
0
-4.70758e-32
-4.57366e-24
-0.147049
-7.07802
-9.27964e-41
-8.24645e-46
-63.8955
-1.08275e-29
-4.05415e-39
-1.10039e-06
-2.61931e-51
-4.83209e-248
-3.5408e+07
-2.99242e-50
-2.89554e-33
-7.96282e-50
-3.16444e-14
-5.191
-1.81933e-13
-5.41582e-72
-352.207
-2.31652e-47
-4.93084e-38
-3.81026
-1.11981e-09
-6.8172e-47
-6.34963e-11
-20890.8
-1.85042e-35
-1.08602e-68
-12.3128
-0.000121728
-1.33329e-50
-1.96056e-84
-192491
-20825.6
2.06024e-197
-1.80462e-106
-1.32342e+07
3.76082e-82
-3.83331e-128
-1.35578e-252
-5.15231e-42
-1.94792e-10
-4.49158e-29
-1.1386e-105
-4.51923e-98
-3.37808e-57
8.55467e-76
-6.88505e-128
-4.02019e-14
0
-0.153499
-3.38021e-117
-3.81163e-86
-4.37979e-07
-7.41257e-66
-0.661933
-4.48972e-19
-27992.7
-5.20465e-19
-1.61571e-93
-1.20189e-250
-7.80767e-40
-1.02379e-25
-60.1748
-3.40344e-06
-9.42672e-10
-216.829
-1.16444e+07
-5.63691e-48
5.84531e-258
-37.2814
-4.46448e-41
-6.11741e-74
-5.52398e-23
-4.13147e-36
-1.03591e-49
-1.23084e-26
-5.01232e-75
-9.69661e-58
-5.03181e-80
-2.31089e-30
-8.05247e-43
-4.09895e-24
-2.95581e-30
-1.67893e-109
-2.9456e-87
-1.0136e-59
-300840
-4.79146e+06
-0.736442
-295.558
-3.04756e-08
-2.70559e-35
-2.63356e-19
-2.15855e-26
-7.10847e-60
-5.65782e-67
-23135.1
-8.91633e-53
-4.82699e-55
-3.36859e-79
-719339
-1.09243e-101
-1486.2
-0.0558312
-3.8644e-55
-3.9139e-45
3.02883e-128
1.42345e-148
-2.86905e-25
-5.80517e-124
-0.00176206
-4.70848e-06
-3.70349
-3.73953e-45
-1.6185e-104
-3.16796e-21
-5.43548e-58
-4.49088e-43
-4.15055e-58
2.91516e-104
-7.43942e-10
-5.89078e-05
-1.15433e-35
-7.52477e-74
-1054.9
-2.23853e-19
-8.29537e-60
-1.47774e-14
1.01695e-87
-5.9891e-11
-2.58836e-71
-1.07219e-23
-3.01614e-296
1.6173e-79
-11140.1
0
0
-2.92033e-44
-9.22177e-88
-473.093
-5.25833e-47
4.04666e-45
-4.32854e-81
-69.8232
-1.62953e-06
1.41589e-78
-6.24098e-20
-1.69912e-85
-4.48242e-74
-2.34574e-51
-1.99175e-54
4.75743e-250
-1.53149e-30
-4.25009e-102
-8.42443e-26
-2.33313e-33
-1.37076e-123
-5.71006e-25
-0.0548692
-2.1977e-48
-3.05801e-41
-1.71101e-11
3.69918e-80
3.12213e-56
-6.46398e-16
-4.36335e-208
-8.0201e-41
-3.34682e-110
-1.15276e-08
-4.25243e+06
-6.58667e-249
-0.000466367
-2.5187
-4.95949e-66
0
-2.19489e-41
6.04985e-226
-2.99552e-62
-6.11177e-33
2.18939e-51
-3.16102e+07
-6.53065e-09
-1.44793e-24
-1.05351e-33
-4.91614e-10
-3.46124e-30
-7.62807e-47
-7.38762e-41
-2.26658
-4.99868e-67
-4.14926e-81
-9.30249e-82
1.18235e-93
-2.95428e-60
-7.78912e-29
-203588
-2.72499e-41
-0.000126591
-2.43655e-29
-5.82968e-26
-3.67885e-51
-1.93125e-41
-8.58784e-123
1.46901e-229
-381840
-0.0984671
-1.18119e-44
-5881.62
-1.01607e-14
-3.07496e+07
-1.11146e-16
-0.00035294
-4.51981e-55
-3.63928e-59
-7.0797e-54
-2.56757e-105
-3.44634e-17
-143434
-1.88126e-31
-9.80666e-11
-8.58877e-32
-1.37954e-47
-2.92035e-101
2.95324e-147
-9.32895e-287
-2.59966e-06
-1.83555e-64
-6.04869e-41
-1.10301e-22
-1.66603e-29
-5.70526e-57
-5.31552e-59
-4.24544e-25
-6.1599e+07
-9550.75
-1.68984e-59
-9.8681e-96
5.3916e-13
-4.53036e-51
-5.67026e-207
-6.07352e-44
-8.07976e-23
-4.09473e-24
-9.24172e-85
-1.7307e-45
-3.03481e-264
-5.95606e-105
-7.19844e-66
-1.89832e-57
-5.9908e-46
-6.89854e-30
-2.31786e-48
2.36126e-227
-25001.6
-3.04472e-54
-2079.38
-4.93795e-99
3.47782e-30
-2.60745e+07
-4.00501e-39
-126.467
-8.72851e-44
-4.90947e-15
-7.91864e-35
5.82761e-53
-1.47973e-66
-1.70042e-41
-2.90749e-50
-1.40745e-31
-9.75606e-57
-3.10161e-55
-1.2749e-64
-2.45574e-57
-7.60134e-87
-110854
-5.19378e-14
-6.97269e-30
-7.45172e-34
-2.08329
2.40411e-160
-1.03143e-07
-4.44611e-31
-1.493e-41
-3.07895e-55
-1.84908e-30
-2.84663e-35
-5.57751e-64
4.45974e-76
-46.9885
-1.16153e-62
-1.24853e-86
-3.51725e-22
-1.13602e-52
-1.18261e-09
-4.45586e-38
-8.10498e-40
-2.62925e-29
-3.77283e-53
-0.00472942
-1.73492e-26
-1.43393e-08
-0.00276789
-2.4927e-95
-8.86957e-56
-6.35281e-05
-5.93e-45
5.93176e-105
-1.62291e-21
-0.00316846
-2.31406e-31
-0.000201305
-2.85159e-13
-1.49518e-16
-1.79406e-124
-4.30172e-46
-1.18791e-46
3.9545e-20
-4.78162e-27
9.62126e-167
-2.92614e-36
-9.00214e-09
-6.76788e-09
1.26267e-79
-1.50604e-25
-2.57611e-56
-0.00604562
-9.46692e-54
1.04773e-76
-1.67348e-34
-1.05667e-08
-452215
-4.47766e-25
1.09991e-197
-4.72011e-96
-2.26702e-48
-1.07101e-70
-2.04255e-94
-3.83937e-209
5.92802e-84
-5.8823e-28
-3.67801e-38
-6.37656e-71
-1.38691e-103
-7.18587e-44
-8.33201e-15
-3.11397e-51
-1.52894e-38
-6.30439e-90
-1.15775e-36
-3.75568e-12
-0.00433546
-3.79476e-11
-5.21971e-38
-8.39932e-128
-5.97912e-98
-8.88999e-70
-8.77534e-107
-7.96317e-40
-3.80083e-112
-4.47319e-70
-3.0073e-37
1.21791e-49
-2.08616e-58
-1.4915e-66
-1.86488e-39
-3.37803e-29
-8.38221e-44
-1.43884e-46
-3.99301e-40
-1.63903e-79
-0.00183357
8.15743e-163
-4.28793e-48
-5.58054e-36
-3.45207e+07
-9.8847e-18
-1.65054e-26
-6.81734e-43
-2.13771e-41
-5.16291e-17
-6.12463e-38
2.68829e-28
-7.5371e-09
-4.31615e-38
-1.88543e-89
-8.27081e-198
-11.1844
-2.54399e-50
-2.53864e-118
-2.48927e-86
-1361.37
-4.24205e-21
-1.04256e-104
-20140.4
-2.63354e-73
-1.61026e-53
1.87393e-94
-1.35812
-4.29547e-45
-1.11974e+07
-1.38691e-05
1.00098e-110
7.62783e-29
-1.1317e-107
-1.49775e-14
-1.38055e-57
-6.53943e-70
-0.00683784
-27.8169
-1.30069e-85
0
-4.60298e-44
-0.0899154
-4.51122e-19
-269.98
-3.52174e-63
-1.66621e-49
-1.15439e-59
-1.7532e-55
2.73377e-89
-0.489767
3.02121e-299
-1.18472e-59
-1.45154e-12
-0.00181296
-3.03514e-15
-1.05384e+07
-6.22355e-12
-1.72899e-18
-1.03524
-3.27458
-7.2395e-13
-650.896
-1.38765e+07
-1.33461e-45
-8.86721e-19
1.91979e-119
-0.00263675
-2.93346e-32
-2.29199e-14
-0.00153339
-4.95939e-41
-1.96249e-69
-7.50191e-24
1.60297e-175
-6.71144e-108
-663.034
-3.02815e-06
-1.37955e-10
-3.34514e-60
-5.46132e-08
-7.36895e-70
-9.12943e-32
-9.51331e-97
-4.27936e-29
-9.53068e-199
-7.02066e-25
-5.39687e+06
-4.68112e-61
-1.06536
-1.34847e-30
-9.75595e-15
-388.294
-1.76325e-45
-8.15119e-58
-0.00931003
-2.15589e-109
-7.79826e-48
-2.73198e-79
-216.735
-301.902
-8.34669e-30
-4.96522e-18
-1.25148e-40
-2.98049e-33
-1055.37
-1.91455e-119
-3.61407e-94
-9.14742
-2.44497e+07
-1.42081e-116
-261.522
-1.04447e-36
-1.59733e-46
1.77807e-97
-6.37335e-125
-293.326
-8.64897e-31
1.19895e-243
0
-4.22617e-94
-2.01395e-37
-1.3381e-20
-1.78752e-103
-2.43622e-52
-1.35814e-107
-2.84212e-14
-5.53027e-111
-2.42499e-34
-2.30059
-1.4961e-27
-17.1379
-2.67353e-42
-8.48769e-08
-2.78931e-41
-5.53034e-41
-2.21063e-32
-4.05344e-18
-2.80597e-12
-0.0321033
3.33882e-48
-6.69545e-36
-5.82765e-23
-2.75044e-37
-3.96176e-37
-1.03724e-12
-1.214e-26
-1.30256e-40
0
-0.000461614
-1.26405e-09
-5.38439e-40
-1.70639e-242
-1.21983e-32
1.62217e-14
-2.35876e-40
-4.54508e-58
-8.75195e-59
-5.96961e-14
-1.43285e-23
1.36816e-77
-2.65289e-05
-3.92055e-38
-3.62696e-59
-0.0118309
-1.48193e-30
0
-15391.4
-3.08451e-19
-2.17267
-1.16702e+07
-3.30455e-42
-3.37366e-33
-3.05434e-36
5.90864e-159
-3.72396e-84
-1.80153e-11
-1.90671e-56
-7.84836e-08
-2.63996e-49
-344.764
-2.25377e+07
-1.13812e-14
-5.92713e-94
-8.49264e-23
0
-9.72653e-46
-8.57847e-12
0
-2.20358e-21
-378.243
-1.23799e-08
-1.22006e-35
1.58619e-65
-2.69879e-59
-1.15518e-32
-1.73138e-28
-2.38486e-44
-1.01415e-34
-7.29243e-30
-1.64146e-41
-1.15378e-244
-267.059
-9.91751e-12
-1.48431e-136
-1.42986e-32
-1.38979e-05
-5.89719e-48
-1.87932e-32
-4.38176e-40
-2.34813e-30
-1.76024e-55
-3.6107e-10
-1.03552e-09
-3.63061e-29
-3.72119e-52
-2.3145e-77
-1.27261e-91
-1.23393e-87
-3.13089e-50
-5.23564e-06
-2.8132e-47
-7.5482e-26
-3.54086e+07
-3.74027e+06
-1.04495e-12
-5.07884e-28
-6.42657e-61
-1.76138e-13
-3.87389e-23
-1.51703e-51
-3170.63
-1.46854e-32
-0.0234579
-3.34414
-9.78548e-44
-5.76371e-65
-6.43136e-41
-4.07092e-15
-4.33409e-39
-3.55471e-08
-2.05096e-30
-1.73756e-12
-5.52766e-48
-2.33531e-87
-1.38572e-54
8.40032e-56
1.16271e-239
-6.20787e-05
-2.69725e-53
-6.94064e-89
-7.20538e-17
-1.65652e-33
-3.87179e-73
-6.71443e-70
-1.48734e-34
-2.78996e-09
-3.20151e-119
-5.92722e-40
-2.69655e-26
-0.000144364
-2.50412e-09
-6.20431e-22
-8.55969e-65
-8.42448e-47
-3.24475e-15
-1.19355e-197
-1.06691e-16
-9.04126e-54
-8.45631e-54
-4.63152e-12
-2.77936e+07
-16.4898
-1.87738e-72
-6.42515e-67
-5.10372e-73
-4.25487e-97
-1.27922e-42
-9.88731e-49
-1.23353e-65
-7.59168e-85
-1.32357e-73
-2.93035e-62
-5.42061e-142
-3.46596e-13
-1.19302e-41
-8.71436e-92
-8.29455e-24
-1.97733e+06
-5.87203e-241
-165723
-1619.89
-5.1925e-42
-9.96485e-05
-1.52351e-16
-1.53719e-16
-2.1253e-47
-1.76577e-12
1.3259e-57
-7.59632e-71
-4.97831e-54
-3.24668e-40
-8.85738e-64
-9.08867e-22
-1.35205e-94
-1.00811e-48
-1.14263e+07
1.40652e-51
-2.22897e-20
-1.01455e-55
-8197.89
-4.29529e-56
-1.46268e-28
-9.36718e-103
-2.9004e-43
0
-2.76095e-64
6.19809e-229
-2.12124e-30
-2.7406e-70
3.3035e-230
-3.03024e-57
3.06064e-160
-589.916
-2.15932e-58
-3.11411e-266
-6.31645e-31
1.04869e-162
-341941
-7.43246e-25
-6.75096e-188
-4.72727e-189
-7.37729e-05
8.98364e-78
-1.38123e-77
-2.5315e-43
-1.5337e-95
-6.51865e-56
1.54064e-122
-3.63825e-47
-3.89301e-111
-1.03409e-12
-1.80361e-29
-4.55254e-268
-4.75943e-52
-1.26138e-58
-5.469e-10
-5.96107e-72
-7.60031e-94
-6.37735e-27
-1.93696e-75
-2.35792e-36
-11849
-3.56573e+06
-5.52706e-57
-150686
-2.18631e-57
-5.89741e-06
-4.59965e-48
-1.39056e-25
-15.6003
-1.096e-57
-3.27983e-95
-5.31983e-58
-195669
-3.25523e-50
4.83854e-91
-2.1661e-14
1.24382e-96
-7.98016e-77
-2.27292e-51
-6.25025e-119
-1.80723e-49
-0.00191389
-1.1411e-31
-1.03126e-46
-1.85128e-49
-1.45111e-111
-2.03488e-59
-1.779e-40
-1.17365
-7.32198e+06
-9.08547e-10
-5.52165e-23
-5.15156e-103
-5.8594e-19
-2.24276e-51
-1.64626e-11
-3.80598e-37
-2.50588e-60
-1.5694e-36
-7.14721e-83
3.45243e-28
-3.57145e-07
-1.77201e-96
-2.01991e-40
-1.99197e+06
-3.33909e-16
-1.94641e-44
-2.92964e-46
-1.09628e-09
-246.842
-2.80083e-33
-3.70817e-49
-3.17389e-28
-1.21946e-291
-9.98701e-231
-5.17382e-20
-5.78324e-32
-3.80325e-53
-0.000223495
-1.17058e-121
-1.1687e-45
-1.11774e-13
2.8802e-68
-2.11151e-10
-251686
1.28046e-301
-1.98982e-38
-8.16782e-56
1.23022e-321
-8.20531e-14
-9.63868e-17
-2.79654e-77
1.31544e-08
-1.13851e-18
-1.85395e-37
3.50791e-74
-1177.53
-1.5616e-113
-1.55491e-55
3.01132e-42
-0.13991
-1.6813e-31
-7.11915e-41
-1.5304e-86
8.24457e-107
-1.54759e-07
-4.6334e-39
-6.32793e-43
-35.0676
-2.3523e-22
-8.08691e-33
-6.91434e-113
-5.20262e-52
-3.86511e+07
-3.07766e-69
-5.84338e-07
-7.00835e-32
-2.24671e-78
-2.80685e-33
-1.22492e-33
-9.65246e-19
-1.00628e-117
-5.44226e-31
-4.35843e-13
1.57379e-120
1.68512e-98
-3.91155e-25
-1.09834e-138
-2.05987e-111
-4.49406e-86
-1.87813e-05
-2.46843e-55
-6.58956e-28
-1.64782e-45
4.36545e-104
-0.0482128
-5.62939e-18
-1.36216e-53
-1.83021e-07
-1.92828e-13
-4.57297e-41
-4.26233e-11
-5.29961e-27
-2.79912e-121
-2.13095e-108
-1.08837e-13
-3.67488e+06
-4.20194e-10
-1.29682e-41
-6.85707e-59
-9.72878e-57
-1.73767e+06
-1.90315e-84
-4.93547e-12
-2.83186e-57
-2.48748e-12
-1.80445e-138
-1.29278e-55
-3.19004e-29
0
-4.78242e-296
-4.09743e-55
2.75517e-76
-5.14307e-10
-5.75901e-90
-4.38752e-37
-9.71096e-30
-6.72661e-10
-11318.7
-780401
-2.68163e-136
-0.12836
-42764.7
-6.33629e-65
-6.95948e-11
2.14855e-57
-3.01502e-72
-6.07168e-36
-3.78572e+07
-1.02986e-09
-1.97149e-59
9.51673e-95
-6.67265e-09
-6.17846e-40
-729187
-4.6136e-39
-2.22222e-88
-8.91166e-56
-2.58473e-138
-6.70823e+07
-6.92172e-43
-5.24305e-18
-4.04781e-26
-3.24787e-53
-5.08349e-87
-5.12604e-28
-1.27087e-94
-2.42923e-28
-0.00158062
-8461.14
-3.50327e-06
-9.45605e-73
-7.26639e-63
-1.33238e-48
-3.2782e-10
-7.96177e-82
-1.26125e-41
-2.05925e-36
-3.69778e+07
-3.16041e-11
7.11366e-58
-3.91234e-30
-4.01795e-37
-9.47299e-49
-1.43401e-13
-4.35167e-55
-1.64e-66
-1.72678e-44
-6.38509e-294
-6.69437e-10
-6.85143e-187
-775620
-0.0022702
-9.93483e-39
-0.000342701
-0.812323
-5.17663e-54
-46.1339
-2.0982e-21
-9.2739e-46
-1.00454e-49
-3.02674e-35
-1.73572e-34
0
-8.96367e-63
-0.0958776
-6.15068e-35
-0.000458225
-5.27858e-139
-2.43872e-56
0
-1.27828e-12
-2.61067e-15
-2.95097e-43
-3.95225e-81
-6.24487e-79
-3.30517e-60
-3.69412e-125
-9.7722e-31
-3099.3
-1.24254e-76
-2.23103e-50
9.56401e-58
-1.20651e-06
-0.00138972
-800.787
1.06905e-156
-7.90781
-3.2013e-22
-2.62672e-58
-4.079e-39
-2.28153e-43
-1.25355e-17
-0.000222797
-0.69227
-1.43048e-71
-2.19875e-56
-1.12683e-09
-0.00335686
-1.13906e-66
0
-5.0876e-61
-3.62004e-06
-4.81339e-73
-1.88024e-05
-4.24151e-69
-3.74726e-34
-5.71061e-08
-16070.5
-2.54932e-30
8.75863e-265
-2.83453e-20
-5.11208e-55
-1.19643e-54
-3.15502e+07
-1.44095e-56
-2.37493e-48
-0.000195718
-14.3595
-9.02553e-54
-2.86395e-57
-2.15203e-08
-8.21278e-21
-0.000120227
-7.5915e-56
-1.0477e-52
-2.65596e-39
-3.8273e-97
-3.58541e-39
-1.87363e-65
-5.79189e+07
-1.18487e-23
-8.82145e-14
-1.10403e-56
-6.92573e-107
-1.13464e-27
-1.79164e-30
-2.67668e-54
-9.84369e-46
-0.134221
-1.69494e-30
-1.23768e-82
-1.28108e-39
-3.21449e+07
-1.12449e-55
-1.66619e-51
-1.7233e-08
-1.03106e-09
-5.61843e-252
-0.00208791
-0.0523224
-8.33199e-30
-3.88806e-80
-2.27604e+07
-3.96448e-61
-1.47486e-47
-1.33003e+06
-5.50849e-45
-3.8726e+06
-9.99797e-24
-1.07939e-92
-6.2237e-69
-4.56755e-99
-4.79745e-17
-1.93135e-119
-2.41426e-60
-8.67809e-66
-4.55365e-46
-4.92348e-12
0
-3.27373e-43
-6.76278e-24
-4.32345e-47
-7.22621e-60
-3.31396e-74
-1.31608e-26
-2.00034e-56
9.64364e-267
-12.8751
-5.59294e+07
-39569.4
-2.41658e-100
-8.87753e-12
-5.7846e-89
-1.64819e-75
-4.65097e-49
-1.02231e-35
-0.00105381
-3.1561e-18
-1.10931e-84
-7.1586e-23
-2.20045e-07
-2.23715e-41
-6.99357e-19
-3.48262e-30
-1.40683e-43
-3.48611e-27
-2.19242e-71
-1.90528e-121
-1.05024e+07
-1.48181e-114
-9.78041e-88
-4.87971e-27
-5.07437e-18
-3.4009e-46
-3.62366e-111
-4.03856e-53
-3.29038e-33
-1.10724e-41
-3.90445e-298
-1.77381e-69
2.4175e-258
-1.10545e-66
-8.44168
-3.74795e+07
-4.36146e-63
-1.64653e-24
-2.43969e-29
-246.465
-3.39926e-18
-4.83052e-75
-2.50494e-33
-2.79065e-28
-6.4876e-54
-1.26642e-33
-1.41435e-50
-0.000313572
-2.41149e-72
-2.05727e-78
-4.88368e-54
-3.38829e+06
-3.11107e-49
-218921
-1.81766e-30
-1.26386e-10
-3.50776e-05
-1.40366e-107
-5.03901
-0.00164826
-2.18712e-85
3.58194e-64
-1.52182e+06
-1.35787e-16
-2.37309e-06
-0.0660706
2.83207e-43
-0.00513629
-1.24919e-253
-4.56414e-29
-6.08694e-23
-557396
-1.54254e-60
-6.92567e-38
-1.30473e-300
-6.01059e-09
-3.42338e-77
1.08833e-160
-1.24715e-22
-0.000731059
-6.09503e-33
-8.54461e-45
-5.73495e+06
0
-2.41314e-29
-3.70153e-30
-1.67367e-18
-2.13003e-18
-4.04101e-53
-2.7931e-24
-4.28264e-98
-4.69421e-22
-8.64627e-14
-1.683e-100
-4.37564e-28
-3.87082e-13
-3.4637e-18
-2.53576e-12
-854005
-2.68362e-64
-6.88863e-203
-6.42992e-59
-3.81292e-25
-2.16986e-48
-2.95401e-34
-1.03311e-24
-1.05113e+07
-2.93216e-94
3.07629e-230
-6.56086e-08
-4.42402e-63
-1.34161e-87
-125451
-1.25504e-52
-2.16503e-06
-1.14357e-17
-7.70594e-53
-9.24229e-39
-1.76635e-284
-1.4906e-36
-3.55104e-14
-3.81256e-46
-3.36258e+07
1.66792e-35
-36.6799
-4.66238e-22
-5.32197e-89
-7.84682
-1.32323e-19
-5.37667e-34
-5.52749e-21
-2.43663e-51
-9.95592e-10
-1.16976e-34
-4.39155e-13
-2.75305e-24
-7.18622e+06
-7.11434e-58
-2.37147e-12
-3.6683e-15
-4.52042e-34
-8.4052e+06
-0.0469023
-2.10287e-08
-1.33786e-39
-4.8524e-45
-1.75984e-15
-1.25557e-70
-3.35712e-183
-7.3877e-13
-3.19368e-44
-3.97873e-72
-3.31088e-30
-3.07438e-34
-1.13542e-23
-3.83887e-42
-2.32614e-111
-2.18838e+06
-4.12532e-201
-1.19979e+07
-3.04972e-23
-4.14317e-13
-6.61301e-138
-7.41001e-35
-1.41978e-29
-8.12748e-23
-6.24947e-40
-5.9542e-31
-1.12412e-78
-2.63123e-17
-9.10486e-06
-13747.1
2.78387e-50
-1.26064e-59
-3.17725e-20
-4.31896e-56
-1.44838e-56
2.60403e-259
-2.02822e-08
2.74371e-232
-0.0199543
-1.13244e-58
-3.0578e-24
-2.27579e-49
-8.64116e-32
1.65277e-103
5.45917e-107
5.58735e-108
-2.12042e-51
-2.50406e+07
-3.50481e-11
5.25253e-123
6.27914e-74
-1.03713e-34
-3.59711e-49
-5.14676e-38
-3.34577e-74
-1.08605e-51
2.93393e-105
-2.60749e-107
-2.23706e-32
-3.76782e-107
6.67337e-14
2.24967e-132
0
-2.57908e-69
-5.78853e-13
-1.52341e-07
-4.36607e-111
4.12136e-45
-1.16765e-82
-1.62201e-07
1.27958e-118
-1.37516e-55
-0.00156454
-6.51229e-06
-4.74112e-112
-8.28671e-23
-2.70389e-44
-7.21872e-34
4.44147e-233
-2.88231e-13
2.1104e-155
-2.14695e-26
-7.18019e-127
-4.80703e-13
-3.80328e+07
-4.25077e-05
-1.82055e-17
-1.0198e-77
-3.9541e-81
-6.94594e-33
-3.08706e-71
-1.22267e-23
-2.61779e+06
-4.30575e-18
-2.24796e-15
-3.33681e-92
-4.40566e-27
-2.79831e-77
-5.67995e-18
-7.15611e-106
-5.84027e-57
-3.32964e-61
-1.56245e-28
-2.81493e+07
-2.48336e-23
-2.11491e-09
-2.8033e-30
-8.29629e-08
-5.01134e-21
4.15579e-196
-3.06324e-38
6.56104e-122
-1.08955e-40
-8.71406e-23
-5.03371e-50
-5.28244e-08
-5.73154e-06
-5.14275e-17
-1.38429e-59
-0.00325786
-1.63978e-09
-4.03146e-59
5.54612e-205
4.19971e-97
-4.36866e+07
-7.60951e-16
-2.33297e-53
-2.60701e-12
-2.46262e-75
-4.70373e-58
-1.12289e-10
-1.78982e-32
-0.86469
-4.80298e-13
-2.27168e-64
-9.30457e-202
-8.18787e-49
-5.66208e-46
1.61962e-105
-3.36093e-44
-6.07944e-34
0
-2.17157e-28
-197171
-4.54321e-52
-6.65995e-14
-5.38509e-33
-0.00145653
-1.67631e-30
1.35955e-112
-5.68475e-21
-4.39468e-13
-5.06503e-35
-8.10192e-11
1.57159e-166
-2.85428e-25
7.59405e-235
-711237
-5.56624e-28
-3.64024e-116
5.90172e-128
6.90999e-200
-4.07445e-40
-8.15992e-25
-0.0327268
-2.14425e-17
-4.29204e+07
-6.44568e-140
-1.46338e-71
-5.29433e-46
-439.216
-6.50473e-66
-240284
4.29983e-123
-3.31095e-64
-1.083e-52
-7.65797e-06
-1.25018e-11
-2.21855e-123
-1.69157e-114
-6.53155e-07
-8.53313e-91
-2.13879e-40
-5.94599e-36
-6.15753e-07
-1.97841e-52
-3.6164e-38
-1.36402e-11
-5.83182e-70
-1.80661e-42
-3.27125e-51
-1.62683e-56
-3.5053e-09
-2.94925e-27
-190752
-2.04599e-71
-3.59604e-53
-5.57199e-58
4.4521e-109
-1.07157e-10
-15.737
-4.43339e-39
-7.07315e-39
-21.3708
-1.34585e-49
-3.34499e-18
-3.78897e+07
-7.71705e-40
-7.16641e-27
-2.62446e-49
-2.42109e-50
-2.41346e-45
2.21634e-208
-2.85599e-27
-8.71659e-51
-6.5096e-07
0
-4.78846e-36
-9.32332e-36
-1.84112e-43
-5.72717e-18
-2.31447e-16
7.44051e-26
-3.45615e-06
-3.08519e-203
-1998.55
-1.02945e-22
-6.92993e-36
-6.46567e-18
-4.0014e-32
-4.88904e-07
1.04072e-44
-4.51513e-31
-2.15812e+07
1.68857e-122
-1.70337e-43
-3.2086e-49
-473.147
-1.55831e+07
-5.09436e-57
-1.09995e-39
-2.50444e-57
-7.23386e-40
-0.304397
-8.51004e-58
-1.03793e-16
-1.33262e-44
-4.38462e-50
-2.54387e-54
-0.0267634
-1.08689e-35
-1.06434e-08
-790019
-7.51822e-93
-0.917718
1.04568e-100
-69672.4
-1.26771e-40
-4.47278e-18
2.61354e-206
-1.11448e-39
-1.56525e-91
4.8309e-126
-1.08334e-130
-3.8483e-21
-7.57702e-77
0
-2.74533e-20
-17778.5
-3.67644e+07
-4.88288e-89
4.32038e-98
-4.82435e-13
-1.4895e-08
-243366
-5.23337e-298
-3.82847e-43
-4.13407e-59
-7.47528e-71
-9.8978e-22
-7.56402e-63
-6.67237e+06
-9732.34
3.61873e-59
-4.49085e-52
-2.93635e-14
-9.65759e-46
-5.52915e-114
-3.95342e-67
-0.0472121
-3.42667e-26
-8.62646e-44
-2.21221e-121
-1.02567e-57
-77.4143
-2.93511e-16
-1.18075e-48
-2.10856e-46
-0.000271866
-3.84387e-91
2.69474e-85
1.59461e-47
-9.11998e-46
-6.13827e+06
-1.77361e-71
-0.000209411
-1.53349e-58
-3.50128e-05
-0.0170751
-1.00895e-61
-1.09966e-86
-3.80099e-21
-310897
-3.5014e-123
-8.47031e-12
-4.96804e-28
-1.63006e-55
-2.12005e-33
-6.81674e-24
-4.40362e-64
-3.50294e+07
-1.36673e-47
-1.31562e-41
-3.10165e-67
-1.08646e-43
-4.78161e-47
-1.59962e-07
-3.76631e-51
-3.27029e+06
-1.78378e-63
-4.37442e-36
-7.96571e-27
-9.56977e-06
-724412
-1.22959e-37
-5.4357e+06
-1.31551e-05
-2.64632e+07
-1.49863e-06
-4.08315e+07
-154615
-8.50417e-08
-2.71199e-37
-1.30802e-40
-2.0199e-29
-1.83343e-17
-4.35208e-27
-9.44599e-17
-4.24581e-53
-5.13118e-15
-1.82636e-107
-2.11905e-120
-1.11775e-109
-5.02977e-51
-1.18652e-63
-4.32105e-39
-760.506
-6.70077e-26
-2.98374e-59
-5.25762e-15
-7.74665e-59
-2.40851e-48
-2.07241e-22
-478746
2.13669e-81
-1.88496e-28
-1.44877e-49
-1.62079e-47
-1.38861e-43
-3.49702e-53
3.61399e-111
-292347
-7.11983e-08
-3.20442e+07
2.1206e-145
6.06156e-101
-1.37318e-42
-7.50473e-13
-2.06711e-14
-1.52792e-42
-2.03941e-29
-9.28046e-28
-1.31595e-73
-562.555
-9.18909e-42
-326.176
-1.82503e-174
-4.75657e-09
7.68485e-43
-19.6631
1.11783e-31
-3.97038e-17
-5.59568e-57
0
-3.00736e-28
-321243
-1.45911e-50
-6.09218e-12
-5.75625e-10
-1.77142e-16
-8.86863e-54
-4.31469e-33
-3.81033e-49
-3.33607e-59
-3.10886e-79
-6.77433
-997467
-6.80852e-10
-5.54282e-52
2.65072e-146
-2.0032e-20
-0.000729825
-7.7998e-42
-651.855
-3.39777e-40
-2.94889e-46
-1.0697e-40
-1.28438e-47
-1.01549e-130
-3.04321e-47
0
-0.0445605
-0.00132791
-7.07053e-46
-1.79611e-22
-2.48984e-36
-1919.48
-8.64245e-51
-1.74016e-64
-2.01878e-51
-0.0446761
-4.70732e-22
-7.34782e-57
-1.6008e-06
-3.91033e-52
-3312.43
-9.75323e-79
-9.81484e-24
1.32835e-302
-9836.23
-4.51644e-24
-2.95986e-47
-6.78114e-38
-1.83147e-122
-1.94363e-33
-3.18493e+06
-2.80622e+07
-7.52277e-29
-1.445e-53
-2.21162e-20
-6.06657e-15
1.50286e-304
-5595.36
-4.71928e-25
3.95593e-112
-11.8174
-2.23973e-14
1.28098e-46
-6465.98
-0.000159615
-6.33775e-57
-3.74667e-16
1.03785e-98
-4.47861e-23
-4.63946e-36
-1.29301e-56
-1.60709e-38
-2.11187e-38
-85221.2
-1.59457e-60
-6.11433e-14
-1.45577e-60
-4.3125e-40
-4.16769e-13
-1.59639e-54
5.24508e-59
-4.05083e-67
-0.422446
1.76029e-129
-2.32624e-126
-6.22064e-27
-0.000115814
-0.00013986
-3.03751e-53
-223.255
-4.825e+06
-3.1982e-17
-1.12462e-07
-1.74374
-468645
-5.03092e-22
-4.98811e-13
-1.22828e-67
-3.24945e-126
-0.0117058
-3.43369e-56
-1.23891e-52
-3.67452e+07
-9.10714e-55
-5.54059e-61
-4.62523e-49
-1.8883e-05
-1.10907e+07
-4.75979e-67
-1.01668e-18
-7.51409e-80
-4.58811e-75
-4.87535e-19
-6.88591e+07
-1.04247e-51
-1.85282e-45
-0.00227817
-0.0509764
-2.65077e-100
-1.41805e-36
-1.15737e-228
-1.84039
-1.52991e-50
-2.55131e-40
-3.13501e+07
-1.40483e-29
-2.88031e-26
-8.2963e-72
-0.000404859
2.0393e-124
-2.53249e-219
-9.69829e-221
-9.71056e-37
-9.98008e-69
-9.39479e-13
-2.64918e-40
5.21594e-46
-4.88239e-77
-5.18565e-09
-4.18538e-77
8.49343e-257
-7.70879
-1.01586e-77
-2.47299e-49
-1.29204e-29
-0.417059
-1.50324e-94
-3.53187e-55
-5.74611e-34
-1.95671e-06
-1.4459e-57
-6.71783e-94
-2.65759e-48
-1.08576e-48
2.28246e-114
-1.50497e-44
-0.000117932
-1.51294e-93
-0.639436
-1.16421e-114
-4.54967e-40
1.55572e-134
-1.36077e-75
-1.58747
-8.75481e-26
-1.01699e-26
2.3969e-87
-2.84634e-41
-1.26036e-94
-2.0414e-09
-231.335
-5.5397e-38
-3.03638e-125
-1.92644e-44
-2.18167e-41
-3.38116e-37
-1.51034e-86
-1.24702e-14
-8.71068e-31
-6.17882e-10
-8.9303e-57
-2.91002e-75
-1.09037e-38
-2.2352e-37
-1.9842e-23
2.1356e-123
-2.57467e-27
-5.62656e-11
-7.03883e-142
-2.02263e+06
0
-3.12366e+06
-4.23762e-69
-1.05548e-242
-1.48932e-37
-1.46715e-58
-1.8711e-71
-3.85126e-77
-1.02188e-10
-5.69545e-39
-2.12994e-49
-1.9576e-49
-4.24613e-87
-6.04049e-114
-1.94416e-52
1.28213e-06
-2.12932e-45
-1.04328e-41
-1.49333e-85
-5.14228e-83
-6.69626e-54
-760.14
-62066
-0.298825
-2.50145e-38
-1.76959e-49
7.10481e-95
-2.8371e-73
-9.98093e-27
-0.000205109
-1.1547e-24
-5.78203e-23
-9.07999e-65
-1.084e-12
4.40178e-303
-4.94339e-107
3.85431e-176
-1.74266e-63
-1.13667
-2.47122e-68
6.57778e-64
-3.14272e-38
-6.16471e-33
-2.36349e+07
-2.89932e-16
-2.28209e-65
-2.99117e-97
-2.95098e-14
-2.59832e-12
-1.883e-36
-2.06109e-43
-7.50535e-44
-3.70303e-39
-63419.7
-1.7019e-06
-45.236
-3.36203e-11
-1.96994e-14
-2.85923e-61
1.80013e-250
-7.8695e-111
-0.000992572
-5.20344e-214
-8.93375e-62
-8518.4
-5.10631e-245
-1.24297e-20
-2.26069e-13
-8.20272e-14
-2.26514e-70
-1.35868e+07
-2.47242e-56
-5.78165e-10
-4.38018e-71
-0.000549835
-2.03721e-62
-9.88688e-30
-3.17304e-35
-1.03833e-222
-0.00314438
-1.35444
-0.000204052
-3.09421e-119
-1.34724e-39
-9.76824e-160
-2.50276e-23
-9.20578e-43
-8.79328e-25
-1.79437e-12
-5.92771e-24
-1.8404e-49
-1.3784e-142
-7.7113e-05
-1.47299e-40
-20012.1
-9.34692
-6.58496e-09
-1.19835e-16
0
-2.13845e-24
-3770.67
-464.342
-1.51736e-26
-2.00771e+07
-16.744
-6.49258e+06
-2.06137e-34
-1.51124e-27
-5.64714e-51
-9.06473e-212
-9.52113e-61
-3.72663e-42
-6.07503e+06
-1.16004e-53
-3.95977e-54
-8.49527e-33
-29167.7
-1.00378e-07
-5.66412e-34
-130268
-4.40524e-16
-581.021
-4.058e-46
-1.67789e-79
-1.45803e-12
-9.29848e-39
-1.63314e-81
-0.0740328
-1.27275e-16
-2.49326e-08
-4.28988e-52
-7225.5
-3.63414e-105
1.56169e-164
-1.54462e-17
-3.48885e-31
-3.64462e-31
-1.15119e-16
-3.51041e-20
-1.1342e-106
-179.252
0
-3.21671e-126
-3.99076e-37
-4.2112e-06
-5.80731e-31
-680.374
-7.77153e-47
-2.0877e-23
-7.21177e-20
-2.74032e+07
-1053.03
-1.07306e-35
-2.3974e-08
-1.80763e-08
-2.53995e-37
-0.0156824
-3.22554e-80
-1.01204e-68
1.92823e-99
-1.5584e-67
-6.01916e-168
-1.45958e-39
-5.32284e-50
-4.55374e-21
-2.66868e+07
-1.42516e-10
-2.15159e-34
-1.22279e-05
-1.14387e-50
2.57492e-99
-1.58226e-32
-3.59791e-10
-1.0489e-32
-1.84639e-32
-1.59702e-31
-1.45818e-60
-8.81684e-19
1.11674e-37
-9.4765e-79
-1.24463e-36
-7.2304e-93
-7.28296e-27
-0.000263138
2.69851e-68
-3.2818e-58
3.58582e-74
-3.59868e-72
-4.65664e-24
-3.40183e-87
3.55049e-54
-3.03578e-62
-0.00398875
-864595
2.30426e-101
-3.18994e-13
-9.43496e-59
3.45037e-252
-1.24496e-22
-4.37459e-64
-1.09582e-08
-1.26686e-100
-4.33611e-107
-3.04445e-51
-3.27584e-39
-3.42432e-10
-5.53994e+06
-7.44692e-11
-8.49906e-232
-1.69531e-34
-122.239
-1.82458e-16
-3.58806e-51
8.13331e-94
-5.27846e-20
0
-1.03786e-09
-1.66987e-12
-7.48142e-42
-2.37441e-49
-9.17571e-08
-1.34813e-46
-2.84556e-23
-1.48864e-32
-9.06189e-57
-1.59065e-58
-3.73219e-217
-1.78743e+07
-2.67302e-31
-3.4566e-09
1.72872e-140
-1.70837e-42
-3.56486e-12
-6.02108e-07
-2.93107e-124
-2.56453e+07
-1.24623e-54
-3.22375e+07
-4.0154e+07
-3.73854e-31
-2.60802e+06
-2.55793e-07
-2.21942e-47
-2.35883e-48
-1.05898e-08
-8.1574e-62
1.79461e-49
-4.4814e-27
-4.85374e-08
-1.92872e-21
-8.57337e-20
-175331
-4.16158e-31
-9.01985e-31
-3.50693e+06
-1.10735e-09
-8.17444e-29
-2.04947e-47
-4.69553e-80
-0.0398757
-1.74486e-06
-5.2822e-66
-6.53023e-27
-6.22723e-18
-7.93073e-247
-2.16206e-47
-1.07199e-50
-2.91496e-60
-7.40901e-95
-2.54582e-10
-1.60665e-09
-8.49973e-124
-3.11264e-56
-3.0222e-46
-7.94051e-34
-7.39529e-56
2.00586e-27
-2.24111e-28
-4.22736e-128
9.7143e-91
-5.25674e-15
-1.20784e-26
1.79325e-305
-4.46635e-10
-1.3362e-119
-4.03427e-43
-0.000106468
-7.22166e-20
-1.94614e-49
-8.34682e-52
5.94851e-158
2.12872e-76
-2.24096e-19
-1.2771e-32
3.04905e-130
1.6987e-90
-7.57614e-34
-4.12924e-109
1.90324e-13
-3.8217e-36
-5.43812e-57
-1.83868e-32
-1.54302e-98
-7.67589e-41
-1.85664e-78
7.77466e-06
-9.38656e-35
4.95909e-83
-1.79619e+06
-6.47207e-06
-1.03422e-36
-1.0301e-42
-3.26093e-40
0
-1.07183e-32
-1.28281e-28
-1.74935e-05
-4.07646e-10
-4.83736e-18
-2.40596e-23
-1.7451e-96
-8.95602e-27
2.90088e-168
-4.82061e-87
-7.13051e-25
0
2.19727e-13
-0.000238038
-1.86025e-29
-2.15062e-26
-2.13176e-11
-14925.2
-2.92748e-27
-2.99927e+07
-5.6614e-44
-5.02105e-60
-9.33326e-32
0
-1.13691e-92
-1.04116e+07
-1.22972e-55
-5.80988e-58
1.31412e-44
-7.21934e-11
-1.63132e-74
-5.77779e-22
-4.24171e-67
-2.22642e-28
-2.56418e-12
-2.63961e-05
-1.70834e-40
-5.32262e-28
-2.38446e-23
-1.74176e-91
-3.00209e-53
-2.97514e-74
-8.7587e-123
-1.37793e-32
-1.58932e-37
-5.3993e-14
-1.0237e-13
-1.29797e-25
-2.77685e-131
-3.62849e-08
-7.09136e-57
-4.52154e-30
-2.13971e-57
-1.18209e-16
-4.06734e-107
-2.71723e-49
-2.90995e-14
-3.14159e-12
-5.7953e-06
-3.85679e-68
-1.70076e-09
-2.21878e-55
-9.97885e-18
-2.14228e-102
-1.36449e-41
-101011
-1.00095e-83
-9.82137e-58
-2.534e-40
-0.00153145
-7.40317e-55
-2.03705e-110
-22405.9
-8.6253e-24
-4.06512e-64
-1.39354e-11
-9.66011e-78
-7.30151e-33
-738.519
-5.21586e-41
-1.55662e-45
-3.28053e-61
-6.2816e-108
-1.35915e-46
-1.23256e-16
-2.10773e-27
-1.17012e-73
-2.32629e+06
-774153
-2.00463e+07
-2.37037e-109
-1.86567e-08
-80.3423
-2.78045e-56
-0.0282922
-1.65838e-49
-1.41701e-49
-4.94502e-123
-1.40881e-47
-6.77857e-109
1.95494e-92
-3.32618e-82
-3.74314e-05
-36.1637
-1.32653e-36
9.06236e-48
-7.42889e-32
-1.40679e-40
9.79275e-37
-4.70534e-97
-2.78464e-13
-7.75444e-42
-1.39133e-12
-1.39226e+07
-1.16582e-09
-1.97577e-266
-1.60317e-19
-8.21282e-60
-5.03276e-53
-6.69092e-68
-7.2376e-22
-3.41423e-45
1.20065e-255
-423.407
-231.07
-1.36953e-22
5.50456e-78
-4.2124e-32
-1.41591e-36
-2.69065e-11
-1.7994e-32
-2.42071e-19
-1.55216
-1.91559e-51
-4.43501e-287
-5.45657e-88
-5.42337e-63
-1.59868e-39
-6.1034e-13
-2.5253e+06
-64.9718
-2.87254e-79
-2.56612e-23
-3.78039e-10
-0.158702
-3.18087e-127
-1.21005e-34
1.89583e-301
-4.33846e-16
-1.46196e-16
-4.38911e-104
-9.2781e-120
-17982.2
-5.92634e-55
-1.64221e-11
-1.33761e-103
-0.0215197
-0.00273475
-5.01097e-27
-1.64178e-08
-1.40983e-06
-1.60286e-29
-6.07559e-31
-4.72492e-74
-2.63783e-68
-7.51759e-27
-6.35166e-38
-7.38932e-21
-4.61844e-22
-0.000378919
-1.16467e-60
-8.0312e-190
-1.52043e-249
-680264
-5.33314e-11
-1.15347e-25
-2.15539e-16
-1.2528e-09
1.33292e-158
-2.07684e-35
-5.75874e-57
-1.18787e-67
-13.4743
-3.89838e-61
-4.71912e-62
-6.27084e-46
-3.12906e-45
4.15939e-151
-2.51114e-31
-1.91513e-54
0
-9.36743e-57