/*--------------------------------*- C++ -*----------------------------------*\
| =========                 |                                                 |
| \\      /  F ield         | OpenFOAM: The Open Source CFD Toolbox           |
|  \\    /   O peration     | Version:  2112                                  |
|   \\  /    A nd           | Website:  www.openfoam.com                      |
|    \\/     M anipulation  |                                                 |
\*---------------------------------------------------------------------------*/
FoamFile
{
    version     2.0;
    format      ascii;
    arch        "LSB;label=32;scalar=64";
    class       volScalarField;
    location    "100";
    object      k;
}
// * * * * * * * * * * * * * * * * * * * * * * * * * * * * * * * * * * * * * //

dimensions      [0 2 -2 0 0 0 0];

internalField   nonuniform List<scalar> 
12225
(
0.539081
0.802272
0.971866
1.06041
1.09376
1.08996
1.07755
1.05146
1.02228
0.993824
0.967349
0.942835
0.92178
0.901714
0.886831
0.870329
0.862451
0.848713
0.38236
0.389798
0.401364
0.416312
0.429583
0.445469
0.459825
0.479033
0.496782
0.520636
0.5371
0.559189
0.573282
0.593632
0.605127
0.623464
0.632036
0.647694
0.374215
0.372673
0.37188
0.369327
0.365535
0.360331
0.355464
0.350307
0.346216
0.342785
0.340034
0.337864
0.336044
0.334864
0.333723
0.333199
0.332335
0.332264
0.373924
0.371202
0.369617
0.367077
0.364637
0.360927
0.357612
0.353257
0.349542
0.345076
0.341393
0.337109
0.333602
0.32958
0.326305
0.322665
0.319681
0.316465
0.373981
0.371292
0.369458
0.367168
0.365167
0.362474
0.360103
0.357105
0.354487
0.351338
0.348618
0.345416
0.342708
0.339583
0.337014
0.334033
0.331713
0.328923
0.373947
0.371469
0.369513
0.367365
0.3655
0.363304
0.361334
0.35905
0.356985
0.354644
0.352538
0.35018
0.348085
0.345753
0.34375
0.341493
0.339661
0.33751
0.373904
0.371554
0.369525
0.367454
0.365612
0.363659
0.36187
0.359954
0.358177
0.356281
0.354522
0.352648
0.350925
0.349086
0.34744
0.345663
0.344142
0.342439
0.373869
0.371579
0.369505
0.367469
0.365609
0.363757
0.362039
0.360305
0.358677
0.357022
0.355461
0.353866
0.352369
0.35083
0.34941
0.347935
0.346618
0.345207
0.373849
0.371578
0.369476
0.36745
0.365567
0.363747
0.362044
0.360385
0.35882
0.357283
0.355826
0.354384
0.353017
0.351654
0.350374
0.349086
0.347899
0.346677
0.373838
0.371573
0.36945
0.367425
0.365523
0.363706
0.361997
0.360359
0.358811
0.35732
0.355905
0.354535
0.353232
0.351963
0.350758
0.349577
0.348465
0.347361
0.373833
0.371567
0.369432
0.367404
0.365489
0.363668
0.361948
0.360309
0.358758
0.357278
0.355873
0.354527
0.353247
0.352017
0.350846
0.349716
0.348642
0.347599
0.37383
0.371563
0.369421
0.367389
0.365466
0.36364
0.361911
0.360268
0.35871
0.357227
0.355818
0.354476
0.353199
0.351979
0.350816
0.349703
0.348641
0.347622
0.373828
0.371559
0.369412
0.367377
0.365448
0.363618
0.361882
0.360234
0.358669
0.357181
0.355767
0.354421
0.35314
0.35192
0.350757
0.349648
0.348588
0.347577
0.373827
0.371556
0.369405
0.367366
0.365432
0.363598
0.361857
0.360203
0.358632
0.357139
0.355718
0.354367
0.353081
0.351857
0.350689
0.349577
0.348515
0.347503
0.373826
0.371553
0.369399
0.367357
0.36542
0.363581
0.361835
0.360177
0.358601
0.357102
0.355676
0.35432
0.353028
0.351799
0.350626
0.349509
0.348442
0.347427
0.373825
0.371551
0.369395
0.36735
0.365409
0.363567
0.361818
0.360155
0.358575
0.357072
0.355641
0.35428
0.352983
0.351748
0.350571
0.349449
0.348378
0.347358
0.373825
0.37155
0.369392
0.367345
0.365402
0.363557
0.361805
0.360139
0.358555
0.357047
0.355613
0.354247
0.352946
0.351706
0.350524
0.349397
0.348321
0.347296
0.373825
0.371549
0.369391
0.367342
0.365398
0.363551
0.361796
0.360127
0.35854
0.357029
0.355591
0.354221
0.352916
0.351672
0.350485
0.349354
0.348273
0.347244
0.373825
0.371549
0.369391
0.367341
0.365397
0.363548
0.361792
0.360121
0.358532
0.357018
0.355577
0.354204
0.352895
0.351647
0.350457
0.349321
0.348237
0.347204
0.373826
0.37155
0.369393
0.367343
0.3654
0.363551
0.361795
0.360123
0.358533
0.357018
0.355575
0.3542
0.352889
0.351639
0.350446
0.349309
0.348222
0.347186
0.373825
0.371552
0.369395
0.367348
0.365404
0.363558
0.361801
0.360131
0.358541
0.357026
0.355583
0.354207
0.352896
0.351644
0.350451
0.349311
0.348225
0.347186
0.373826
0.371554
0.369399
0.367355
0.365413
0.363568
0.361813
0.360144
0.358555
0.357042
0.355599
0.354223
0.352911
0.351659
0.350464
0.349323
0.348233
0.347193
0.373827
0.371558
0.369406
0.367365
0.365425
0.363582
0.36183
0.360162
0.358573
0.357058
0.355612
0.354232
0.352912
0.351652
0.350445
0.349292
0.348186
0.347131
0.373827
0.371568
0.369418
0.367381
0.365438
0.363595
0.361835
0.360161
0.358556
0.357022
0.355546
0.354133
0.352771
0.351466
0.350205
0.348998
0.347829
0.346713
0.373827
0.371591
0.369432
0.367389
0.365414
0.363546
0.361742
0.360018
0.358337
0.356717
0.35513
0.3536
0.3521
0.350658
0.349243
0.347887
0.346553
0.345283
0.373844
0.371645
0.369415
0.367322
0.365232
0.36328
0.361326
0.359446
0.357537
0.355679
0.353805
0.351988
0.35017
0.348419
0.346673
0.345006
0.343343
0.341775
0.373952
0.371796
0.369419
0.367237
0.36488
0.362719
0.360354
0.35808
0.355621
0.353234
0.350741
0.348337
0.345899
0.343567
0.341251
0.339049
0.336888
0.334847
0.374397
0.372606
0.370355
0.368309
0.365497
0.362931
0.359705
0.356759
0.353373
0.350315
0.347088
0.344223
0.341449
0.338987
0.336835
0.334816
0.333236
0.331622
0.377696
0.37956
0.382708
0.387563
0.391707
0.397088
0.401834
0.408068
0.413957
0.421234
0.428528
0.437129
0.445879
0.455681
0.465399
0.474424
0.483623
0.491914
0.46226
0.611554
0.72746
0.813203
0.870995
0.909313
0.929838
0.941767
0.942327
0.940197
0.935111
0.926839
0.917487
0.907518
0.897509
0.887644
0.877983
0.868671
0.000346288
0.0025969
0.00591606
0.0104748
0.0154048
0.0206402
0.0250056
0.0275277
0.0315179
0.0333684
0.0362544
0.0376695
0.0430866
0.0464772
0.052261
0.0567166
0.0638885
0.0720158
0.0822696
0.093918
0.108189
0.123955
0.142481
0.162654
0.185497
0.209251
0.233942
0.258776
0.284028
0.308874
0.33332
0.356985
0.380614
0.403137
0.426038
0.448425
0.471805
0.494362
0.517304
0.539402
0.561821
0.583069
0.604216
0.624108
0.643395
0.659664
0.675685
0.690516
0.699766
0.705294
0.718752
0.723844
0.718264
0.704956
0.695997
0.688079
0.678633
0.647917
0.600578
0.54448
0.478933
0.406907
0.337435
0.277447
0.229642
0.189336
0.154539
0.124174
0.0969697
0.072651
0.0531279
0.0344302
0.020859
0.00830477
0.00470191
0.00743432
0.015444
0.0332135
0.059121
0.0696207
0.0657735
0.0505411
0.0460475
0.0650531
0.108744
0.18675
0.332945
0.418983
0.543287
0.567304
0.656213
0.666271
0.727688
0.736945
0.771733
0.784957
0.800673
0.81035
0.815853
0.816863
0.820991
0.816501
0.796102
0.79634
0.788494
0.779752
0.77067
0.760317
0.750591
0.740936
0.734638
0.722929
0.714356
0.701914
0.682912
0.669455
0.653174
0.637341
0.62281
0.606907
0.589775
0.575359
0.558141
0.547453
0.532826
0.521399
0.508608
0.496925
0.485199
0.474005
0.463078
0.45238
0.442101
0.432144
0.42268
0.413586
0.405061
0.397189
0.389859
0.382953
0.376597
0.371183
0.365785
0.361934
0.356868
0.35376
0.348665
0.344921
0.339935
0.336353
0.338632
0.333172
0.330309
0.330949
0.326434
0.32693
0.323242
0.323171
0.322376
0.32207
0.322244
0.322601
0.322818
0.324165
0.325332
0.326724
0.332655
0.339065
0.346831
0.351945
0.356013
0.360251
0.361555
0.360977
0.360024
0.359028
0.354274
0.346929
0.342171
0.310155
0.00123712
0.00637971
0.0141562
0.0231717
0.0329164
0.0432194
0.0530059
0.0621209
0.0705643
0.077739
0.0835505
0.0891541
0.0958515
0.104002
0.115382
0.126001
0.141757
0.161403
0.185143
0.214292
0.248372
0.287125
0.330332
0.37717
0.427292
0.479253
0.531646
0.583599
0.636113
0.686894
0.737374
0.786389
0.835692
0.884338
0.93242
0.980812
1.02964
1.07954
1.13087
1.18322
1.23703
1.291
1.34475
1.39709
1.44752
1.49453
1.53711
1.57394
1.60514
1.62584
1.64155
1.64701
1.64022
1.62302
1.59536
1.55675
1.50758
1.44946
1.38474
1.30198
1.17894
1.02375
0.847125
0.664863
0.495059
0.357679
0.258018
0.187048
0.136704
0.0995271
0.0713399
0.046517
0.0316103
0.0271938
0.0277781
0.0381718
0.0698408
0.137332
0.208048
0.236759
0.225119
0.213015
0.244341
0.506398
0.6552
0.670506
0.719354
0.77042
0.837539
0.886434
0.940464
0.992596
1.04574
1.09928
1.15296
1.2066
1.26247
1.3149
1.36714
1.41198
1.44341
1.46211
1.47354
1.4723
1.48224
1.49322
1.48495
1.44735
1.46182
1.41795
1.45043
1.39848
1.42586
1.40248
1.34868
1.28836
1.26979
1.24408
1.2271
1.23912
1.13552
1.1103
1.05522
1.04264
1.00454
0.986499
0.964469
0.943334
0.922837
0.902776
0.883284
0.864459
0.846158
0.828686
0.811565
0.794974
0.778988
0.765429
0.752728
0.740564
0.729752
0.720217
0.713445
0.710637
0.710451
0.722167
0.719415
0.723562
0.727398
0.732474
0.738813
0.745205
0.753884
0.763731
0.774056
0.785769
0.798924
0.813476
0.828114
0.842079
0.860086
0.878211
0.894716
0.908749
0.920724
0.925018
0.923542
0.922604
0.925658
0.922423
0.916544
0.90675
0.896261
0.880616
0.865958
0.84395
0.826963
0.795335
0.781889
0.723114
0.00288452
0.0114285
0.0288159
0.0474734
0.0694271
0.0919306
0.113124
0.132111
0.148523
0.162089
0.173614
0.184305
0.195984
0.210131
0.228379
0.251478
0.280376
0.314728
0.354256
0.398318
0.446137
0.496877
0.550271
0.605439
0.661705
0.718112
0.774395
0.830162
0.885471
0.939921
0.994234
1.04841
1.10297
1.15821
1.21444
1.27195
1.33111
1.39193
1.45446
1.5183
1.5831
1.64799
1.71217
1.77442
1.8336
1.88829
1.93688
1.97743
2.00829
2.02879
2.04274
2.04293
2.0305
2.00614
1.9698
1.9213
1.86034
1.78834
1.70666
1.61489
1.51529
1.41091
1.28779
1.11961
0.923066
0.71479
0.519958
0.361295
0.244031
0.167119
0.115876
0.0854783
0.0662585
0.0547173
0.0472166
0.0523433
0.092367
0.172735
0.263552
0.352974
0.489337
0.76563
0.87353
0.936175
0.980586
1.02714
1.11756
1.2237
1.33738
1.44317
1.54777
1.63945
1.7252
1.80005
1.86786
1.92814
1.98392
2.03425
2.07932
2.1172
2.15275
2.18563
2.2136
2.23816
2.2541
2.26194
2.26499
2.26499
2.26137
2.25135
2.22556
2.19988
2.20293
2.20313
2.17859
2.10664
2.08397
2.04884
2.01187
1.99981
1.8943
1.8676
1.77319
1.73506
1.68304
1.6396
1.5927
1.54583
1.49915
1.45273
1.407
1.36263
1.31954
1.27826
1.2388
1.20096
1.16495
1.13258
1.10283
1.07555
1.05163
1.03034
1.01214
0.997534
0.986726
0.977881
0.971656
0.970757
0.978113
0.980318
0.984709
0.990991
0.99837
1.00752
1.01813
1.02958
1.04255
1.05843
1.07606
1.09208
1.10793
1.12201
1.13249
1.13836
1.14162
1.1451
1.14118
1.14
1.14257
1.13966
1.13352
1.12247
1.1103
1.09193
1.07466
1.04882
1.02877
0.992666
0.973799
0.923391
0.005347
0.0244753
0.0582811
0.090157
0.123348
0.155298
0.184825
0.211286
0.234419
0.254209
0.271102
0.285966
0.300176
0.315431
0.333719
0.356833
0.386211
0.42236
0.465098
0.513545
0.56672
0.62349
0.682997
0.744292
0.80664
0.86931
0.931981
0.994244
1.05592
1.11685
1.17739
1.23771
1.29827
1.35941
1.42156
1.48495
1.54988
1.6163
1.68414
1.75295
1.82225
1.89116
1.95875
2.02381
2.08508
2.14114
2.19056
2.23143
2.26165
2.28222
2.29642
2.29497
2.27878
2.24842
2.20419
2.14692
2.07685
1.99516
1.90249
1.80079
1.69266
1.58092
1.46625
1.34852
1.20961
1.03046
0.825868
0.618755
0.438708
0.293812
0.202315
0.138696
0.109719
0.0901131
0.0746657
0.0787941
0.13997
0.291853
0.493437
0.857836
1.06771
1.0943
1.13419
1.19219
1.27931
1.39472
1.53315
1.67652
1.81325
1.93838
2.05297
2.15527
2.24749
2.3302
2.40532
2.47378
2.5365
2.59392
2.64624
2.69391
2.73856
2.77932
2.81571
2.84771
2.87182
2.89152
2.90965
2.92051
2.92634
2.92609
2.90864
2.90193
2.89049
2.87643
2.85363
2.82161
2.79369
2.75688
2.71605
2.67132
2.61365
2.56337
2.5021
2.44571
2.3839
2.32128
2.25442
2.1856
2.11406
2.04111
1.96721
1.89384
1.82069
1.74873
1.6788
1.61126
1.54688
1.48677
1.43134
1.38064
1.33497
1.29505
1.26027
1.23062
1.20638
1.18591
1.17042
1.15905
1.15248
1.14923
1.14682
1.14765
1.14847
1.15061
1.15519
1.16075
1.16781
1.1766
1.18505
1.19271
1.20195
1.20901
1.21476
1.21862
1.21824
1.22069
1.21596
1.2146
1.21666
1.21484
1.21023
1.20137
1.19245
1.17765
1.16389
1.14186
1.124
1.09323
1.07437
1.03262
0.00774553
0.0402153
0.0911151
0.135958
0.178262
0.21756
0.253579
0.286055
0.314878
0.34011
0.362137
0.381647
0.399712
0.417756
0.43755
0.460963
0.48975
0.525107
0.567546
0.616758
0.671972
0.732039
0.795866
0.862303
0.930422
0.999354
1.06852
1.13734
1.20552
1.27285
1.33948
1.40552
1.47134
1.53722
1.60357
1.67062
1.73859
1.80743
1.87703
1.94695
2.01668
2.08537
2.15215
2.21585
2.27536
2.32936
2.37658
2.41554
2.44364
2.46313
2.47649
2.474
2.45735
2.42584
2.37926
2.31799
2.24293
2.15528
2.05577
1.94605
1.82855
1.70606
1.58192
1.45883
1.33698
1.21425
1.04946
0.854812
0.652558
0.470461
0.327918
0.233777
0.175059
0.140202
0.12687
0.135603
0.25186
0.51489
1.1123
1.2758
1.24979
1.25256
1.32004
1.42339
1.55267
1.70091
1.86291
2.02058
2.16815
2.30387
2.42797
2.54046
2.64287
2.73635
2.82219
2.90108
2.97417
3.04198
3.10495
3.16364
3.21817
3.26831
3.31421
3.35509
3.39081
3.42207
3.44932
3.47167
3.48905
3.49773
3.50404
3.5067
3.5054
3.49834
3.48531
3.46541
3.44161
3.41
3.37272
3.32942
3.279
3.22586
3.16716
3.10479
3.03701
2.96457
2.88748
2.80589
2.71976
2.62983
2.53661
2.44136
2.34402
2.24555
2.14717
2.0493
1.95349
1.86187
1.77467
1.69354
1.61835
1.55147
1.49191
1.43974
1.39435
1.35629
1.32455
1.29845
1.27629
1.25788
1.24278
1.23
1.22001
1.21369
1.20966
1.20728
1.20671
1.20744
1.20755
1.20926
1.2095
1.20884
1.20904
1.20908
1.20751
1.20768
1.20503
1.20409
1.20504
1.20579
1.20504
1.20263
1.19883
1.18948
1.18077
1.16505
1.15093
1.1291
1.11181
1.08563
0.010217
0.0576633
0.125075
0.18157
0.231958
0.277708
0.319237
0.356637
0.39003
0.419688
0.446092
0.469932
0.49217
0.514036
0.537041
0.562843
0.59311
0.62921
0.672041
0.721814
0.778183
0.84029
0.907082
0.977328
1.04995
1.12391
1.19835
1.27249
1.34587
1.41812
1.48919
1.55912
1.62818
1.6966
1.76476
1.8329
1.90125
1.96982
2.03861
2.10727
2.17543
2.24239
2.30743
2.36953
2.42768
2.48064
2.5272
2.56623
2.594
2.61381
2.62881
2.6277
2.61199
2.58158
2.53601
2.47473
2.39779
2.30589
2.20152
2.08522
1.95927
1.82628
1.68964
1.55342
1.42163
1.29609
1.17114
1.01951
0.836654
0.645047
0.475838
0.342748
0.252541
0.197394
0.190111
0.254779
0.543019
1.19625
1.44589
1.3741
1.33341
1.38449
1.48741
1.61598
1.76482
1.93285
2.10971
2.27862
2.43704
2.58368
2.71864
2.84198
2.95529
3.05983
3.15629
3.24554
3.32869
3.40596
3.47811
3.54579
3.60905
3.66794
3.72238
3.77224
3.81806
3.85973
3.89687
3.92917
3.95676
3.97722
3.99649
4.00587
4.01448
4.01604
4.01128
3.99945
3.98147
3.95574
3.92343
3.88517
3.84039
3.79
3.73312
3.66976
3.60013
3.52412
3.44203
3.35403
3.26014
3.16078
3.05626
2.94726
2.83415
2.71768
2.5989
2.47826
2.35729
2.23797
2.12114
2.00894
1.90217
1.80289
1.71212
1.63009
1.55711
1.49331
1.43758
1.3874
1.34356
1.30972
1.28048
1.25499
1.23481
1.21412
1.1952
1.17789
1.16247
1.1482
1.13469
1.12358
1.11533
1.10822
1.10512
1.10307
1.10245
1.102
1.10287
1.10311
1.10664
1.11037
1.1174
1.12153
1.12638
1.1272
1.12812
1.12389
1.11668
1.10807
1.09574
1.08513
0.0134233
0.0777986
0.160198
0.227656
0.285755
0.337331
0.383512
0.424853
0.461824
0.494935
0.524822
0.552254
0.578191
0.60377
0.630333
0.659331
0.692245
0.730376
0.774701
0.825676
0.883253
0.946846
1.01556
1.08824
1.16373
1.24078
1.31841
1.39567
1.47193
1.54669
1.61979
1.6912
1.76114
1.82986
1.8978
1.96526
2.0326
2.09996
2.16747
2.23503
2.30247
2.3693
2.43497
2.49861
2.55928
2.61573
2.66665
2.71039
2.74433
2.76734
2.78825
2.79385
2.78361
2.75689
2.71324
2.65299
2.57589
2.48179
2.37195
2.24836
2.11254
1.9673
1.8164
1.66385
1.51449
1.37315
1.24165
1.11414
0.970092
0.796371
0.614263
0.44502
0.334214
0.292436
0.325709
0.54364
1.18123
1.57099
1.5108
1.41666
1.41396
1.49874
1.61994
1.76591
1.9396
2.13289
2.32421
2.50497
2.67359
2.82959
2.97345
3.10589
3.22805
3.34087
3.44527
3.54223
3.63254
3.71679
3.79578
3.86994
3.93957
4.00482
4.06575
4.12247
4.17545
4.22427
4.26884
4.30871
4.34348
4.37313
4.39854
4.418
4.42882
4.43725
4.43831
4.4322
4.4189
4.39831
4.37133
4.33747
4.29655
4.24859
4.19323
4.1304
4.06014
3.98244
3.89741
3.80522
3.70586
3.5997
3.48689
3.36794
3.24315
3.11323
2.97891
2.8409
2.70034
2.55877
2.41747
2.27836
2.14303
2.0136
1.89199
1.77984
1.67734
1.5857
1.49944
1.42803
1.36948
1.31551
1.26572
1.22133
1.18219
1.14448
1.10913
1.07657
1.04921
1.02601
1.00599
0.989849
0.977711
0.968954
0.964576
0.961631
0.962574
0.962927
0.962712
0.965697
0.972058
0.978811
0.9891
0.996856
1.007
1.01471
1.02406
1.03468
1.03865
1.04318
1.03718
1.03931
0.0175961
0.101292
0.197787
0.274914
0.339835
0.396415
0.446437
0.49092
0.530665
0.566426
0.599017
0.629317
0.658312
0.687096
0.716887
0.748971
0.784642
0.825056
0.871125
0.923351
0.981807
1.04608
1.11543
1.18878
1.26498
1.34279
1.4211
1.49889
1.57547
1.65027
1.72311
1.79395
1.86306
1.93079
1.99764
2.06407
2.13057
2.19743
2.26495
2.3332
2.40223
2.47179
2.54153
2.61073
2.67856
2.74373
2.80478
2.8598
2.90719
2.94158
2.96692
2.98735
2.9889
2.97129
2.93408
2.87689
2.79967
2.70315
2.58804
2.45556
2.30755
2.14728
1.97901
1.80753
1.6375
1.47412
1.32248
1.18381
1.05288
0.911187
0.736419
0.552332
0.423439
0.397925
0.546153
1.10751
1.55229
1.5919
1.50198
1.44598
1.49451
1.60398
1.7448
1.91149
2.10716
2.31404
2.51463
2.70378
2.88041
3.04436
3.19621
3.3366
3.46639
3.58648
3.69776
3.80115
3.89739
3.98725
4.07135
4.15029
4.22441
4.29408
4.35945
4.42078
4.4782
4.53153
4.58056
4.6251
4.66466
4.69941
4.72905
4.75319
4.7714
4.78101
4.78681
4.78536
4.77627
4.76076
4.73848
4.70891
4.6717
4.6267
4.57363
4.51233
4.44269
4.36466
4.27825
4.1835
4.08046
3.9693
3.85018
3.72337
3.58919
3.44811
3.30078
3.14795
2.9906
2.82985
2.66711
2.50419
2.34294
2.18575
2.03477
1.89374
1.76141
1.63767
1.53049
1.4368
1.35128
1.27504
1.20245
1.13758
1.08103
1.03148
0.988838
0.951523
0.922852
0.899022
0.879536
0.863936
0.851848
0.844538
0.838751
0.835659
0.834837
0.835218
0.837971
0.842397
0.848844
0.856588
0.866446
0.876482
0.888512
0.900174
0.912668
0.926022
0.934893
0.948847
0.955358
0.968079
0.0227247
0.12742
0.23707
0.322523
0.393142
0.453787
0.506855
0.553783
0.595679
0.633513
0.668246
0.700842
0.732302
0.76368
0.7961
0.830702
0.868603
0.91079
0.95805
1.01084
1.06926
1.13299
1.20139
1.2735
1.34825
1.42446
1.50105
1.57705
1.65175
1.72466
1.79563
1.8647
1.93222
1.99861
2.06449
2.1304
2.19693
2.26451
2.33354
2.40424
2.47685
2.55139
2.62775
2.70545
2.78383
2.86174
2.93771
3.00972
3.07543
3.13284
3.17347
3.20471
3.22827
3.22827
3.20341
3.15375
3.07937
2.98073
2.85901
2.71592
2.55371
2.37573
2.18692
1.99303
1.79961
1.61179
1.4352
1.27407
1.12958
0.994678
0.841561
0.670535
0.577033
0.612008
0.959006
1.46385
1.6439
1.60458
1.5037
1.49668
1.57867
1.70615
1.86182
2.04409
2.25593
2.47115
2.67865
2.87476
3.05841
3.22964
3.38885
3.53652
3.67329
3.79996
3.91734
4.02629
4.12754
4.22187
4.30988
4.3923
4.46949
4.542
4.61002
4.67393
4.73374
4.78944
4.8407
4.88749
4.92941
4.96655
4.99857
5.02542
5.04673
5.06004
5.06723
5.06898
5.06384
5.05264
5.03453
5.00897
4.97553
4.93392
4.88386
4.82501
4.75722
4.68023
4.59402
4.49844
4.39356
4.27932
4.15588
4.02331
3.88187
3.73178
3.57357
3.40801
3.23589
3.05792
2.87559
2.69089
2.50559
2.32265
2.14305
1.96703
1.80831
1.66443
1.529
1.39935
1.28271
1.18197
1.0962
1.02426
0.965073
0.91529
0.874159
0.839206
0.81437
0.792933
0.776023
0.762467
0.751927
0.745691
0.739662
0.734608
0.735139
0.737328
0.740651
0.74504
0.750874
0.758091
0.767116
0.777542
0.789507
0.80236
0.81596
0.831248
0.843706
0.860633
0.870057
0.890939
0.0287033
0.154805
0.276201
0.36865
0.443877
0.507733
0.56319
0.61205
0.655662
0.695162
0.731622
0.766047
0.799434
0.832791
0.867153
0.903522
0.942853
0.985968
1.03351
1.08586
1.14309
1.20493
1.27084
1.33999
1.41145
1.48418
1.55723
1.62974
1.70112
1.77097
1.83924
1.90604
1.97178
2.03693
2.10215
2.168
2.23516
2.30409
2.37534
2.44923
2.5262
2.60657
2.69057
2.77808
2.86876
2.96174
3.05572
3.14869
3.23816
3.32079
3.39405
3.44578
3.48563
3.51436
3.51042
3.47612
3.4108
3.31432
3.18769
3.03335
2.85497
2.65666
2.44382
2.22351
2.0028
1.78754
1.58422
1.39761
1.22909
1.07679
0.907259
0.794333
0.749835
0.920208
1.32329
1.59687
1.65251
1.57814
1.51776
1.55617
1.65941
1.79918
1.96603
2.16229
2.3826
2.60383
2.81721
3.01963
3.20999
3.38823
3.55452
3.70915
3.85257
3.98544
4.10852
4.22256
4.32828
4.42635
4.5175
4.60238
4.68156
4.75552
4.8247
4.88938
4.94976
5.00571
5.05711
5.1038
5.14568
5.18264
5.21459
5.24136
5.26268
5.27808
5.28577
5.28875
5.28644
5.27801
5.26289
5.24051
5.21039
5.17214
5.12535
5.06961
5.00453
4.92976
4.84508
4.75029
4.64524
4.52975
4.4038
4.26733
4.12035
3.96291
3.79537
3.61854
3.43315
3.23939
3.03885
2.8338
2.62272
2.40806
2.2025
2.00247
1.81331
1.62467
1.45146
1.29854
1.16959
1.0647
0.980467
0.912608
0.859058
0.813653
0.777118
0.747229
0.726995
0.707336
0.692769
0.680306
0.671052
0.662696
0.656443
0.654877
0.65623
0.659185
0.662974
0.667486
0.673127
0.68003
0.688538
0.698665
0.710452
0.723731
0.738092
0.754224
0.769343
0.787603
0.800647
0.822297
0.035203
0.181653
0.31307
0.411219
0.490097
0.556489
0.613862
0.664306
0.709362
0.750279
0.788186
0.824097
0.858985
0.893805
0.929489
0.966912
1.00688
1.05006
1.09698
1.14793
1.20295
1.26183
1.32411
1.38913
1.45611
1.52421
1.59266
1.66078
1.72811
1.79437
1.85957
1.92392
1.9879
2.05171
2.1161
2.18172
2.24923
2.31919
2.39218
2.46872
2.54947
2.63507
2.72618
2.82307
2.9259
3.03444
3.14772
3.26389
3.38047
3.49383
3.59941
3.69362
3.75993
3.81686
3.84218
3.83263
3.78559
3.69953
3.57462
3.41293
3.21854
2.99721
2.75586
2.50255
2.24762
1.99924
1.76542
1.5507
1.35278
1.17464
1.00698
0.928837
0.965427
1.22596
1.53198
1.66105
1.63585
1.55985
1.54848
1.61528
1.73133
1.87886
2.05358
2.26141
2.48739
2.71356
2.93243
3.14098
3.33801
3.52318
3.69648
3.85798
4.00797
4.14698
4.27568
4.39468
4.50465
4.60616
4.69996
4.78661
4.86689
4.94122
5.01023
5.07413
5.13334
5.1876
5.23697
5.28122
5.32048
5.35452
5.38357
5.40742
5.42606
5.43929
5.4456
5.44803
5.44561
5.43758
5.42343
5.40262
5.37462
5.33898
5.29509
5.24246
5.18042
5.10849
5.02616
4.93309
4.82883
4.71318
4.58585
4.44667
4.29536
4.13186
3.95623
3.76898
3.57068
3.36057
3.14068
2.91178
2.68028
2.44286
2.20616
1.96023
1.72489
1.50852
1.32136
1.16632
1.04328
0.947898
0.873506
0.814237
0.768374
0.728694
0.698102
0.672259
0.654514
0.635977
0.622841
0.611035
0.603025
0.594899
0.587356
0.587054
0.590087
0.594386
0.598883
0.60385
0.609831
0.616895
0.625567
0.635888
0.647951
0.661896
0.677412
0.694393
0.71193
0.731071
0.747095
0.769087
0.0416958
0.206167
0.345704
0.448333
0.530071
0.598488
0.657452
0.709282
0.755643
0.797856
0.837071
0.874283
0.910421
0.946365
0.982944
1.02091
1.06095
1.10359
1.14927
1.19821
1.25045
1.30583
1.36398
1.42437
1.48644
1.54951
1.61304
1.67652
1.73966
1.80227
1.8641
1.9256
1.98744
2.04951
2.11242
2.17656
2.24337
2.31304
2.38621
2.46363
2.54619
2.63483
2.73044
2.83434
2.94753
3.07029
3.20206
3.34151
3.48698
3.63434
3.77865
3.91333
4.03347
4.11857
4.18532
4.21254
4.19578
4.13161
4.01876
3.85815
3.65311
3.40935
3.1363
2.84541
2.55065
2.26071
1.98633
1.73371
1.50182
1.28157
1.15102
1.10356
1.21731
1.45019
1.5976
1.64755
1.61662
1.56178
1.5851
1.66852
1.79139
1.94335
2.12444
2.34109
2.57157
2.80225
3.02645
3.24108
3.44471
3.63677
3.81702
3.98538
4.14198
4.28724
4.42161
4.54563
4.65978
4.76465
4.86083
4.94899
5.02975
5.10376
5.1715
5.23342
5.28983
5.34066
5.38581
5.42535
5.45928
5.48744
5.51025
5.52769
5.53894
5.54425
5.54487
5.54178
5.53443
5.52255
5.50583
5.48376
5.45574
5.4211
5.37908
5.32887
5.26963
5.20062
5.12115
5.03052
4.92812
4.81349
4.68613
4.54556
4.39132
4.22287
4.03977
3.84274
3.63424
3.41225
3.17702
2.93132
2.66659
2.38249
2.09617
1.81881
1.56549
1.34636
1.16865
1.0291
0.923083
0.842575
0.779822
0.730451
0.693055
0.657495
0.63217
0.608621
0.591798
0.575896
0.560731
0.552826
0.542789
0.538394
0.527316
0.528817
0.534073
0.539916
0.545311
0.550877
0.557542
0.565197
0.57472
0.585869
0.599104
0.61444
0.631803
0.650231
0.670041
0.689899
0.70849
0.728611
0.0476165
0.226738
0.372444
0.47846
0.562398
0.632457
0.692808
0.745928
0.793573
0.837095
0.877636
0.916148
0.9535
0.990482
1.02782
1.06616
1.10607
1.14799
1.19226
1.23908
1.2885
1.34041
1.39458
1.45059
1.50795
1.56621
1.62505
1.68416
1.74346
1.80241
1.8611
1.91984
1.97891
2.03856
2.09938
2.16169
2.22605
2.29296
2.36316
2.43766
2.51779
2.60519
2.70213
2.80938
2.92846
3.05983
3.20579
3.36713
3.54127
3.72373
3.91022
4.09326
4.26437
4.41365
4.52179
4.5998
4.62799
4.60031
4.51343
4.36668
4.16186
3.90332
3.60095
3.2702
2.92634
2.58472
2.25965
1.96022
1.69627
1.45251
1.33273
1.30606
1.41016
1.54169
1.62407
1.63553
1.5918
1.57657
1.62185
1.71398
1.83977
1.9943
2.1821
2.403
2.6368
2.87152
3.10077
3.32126
3.53127
3.72999
3.91703
4.09214
4.25533
4.40684
4.54697
4.67612
4.7946
4.903
5.00169
5.09135
5.17244
5.24568
5.3114
5.37035
5.42272
5.46852
5.50734
5.5397
5.56526
5.58317
5.59369
5.59799
5.59645
5.59218
5.58433
5.57322
5.55883
5.54111
5.51984
5.49454
5.4646
5.42919
5.38746
5.3383
5.28083
5.21402
5.13705
5.04893
4.94893
4.83621
4.71006
4.56968
4.41438
4.24335
4.05545
3.8512
3.63171
3.38925
3.1246
2.83191
2.52116
2.20313
1.8943
1.61169
1.36908
1.17098
1.01864
0.902937
0.816826
0.751082
0.700548
0.660851
0.629102
0.596868
0.575941
0.553416
0.537589
0.523881
0.508374
0.500051
0.49259
0.489387
0.480529
0.483177
0.489465
0.495807
0.501387
0.507502
0.515013
0.523643
0.534606
0.547229
0.562551
0.580335
0.60031
0.621282
0.643259
0.663837
0.682732
0.702401
0.0523622
0.24213
0.392111
0.500511
0.586099
0.657501
0.719106
0.773506
0.822504
0.867458
0.909482
0.949474
0.988227
1.02643
1.06472
1.10363
1.14362
1.18507
1.22827
1.27337
1.32044
1.36944
1.42021
1.47249
1.52594
1.5801
1.63472
1.68971
1.74506
1.79943
1.8538
1.90852
1.96379
2.01977
2.07677
2.13507
2.19505
2.25726
2.32263
2.39182
2.4661
2.54703
2.63744
2.74024
2.85922
2.99999
3.15729
3.33453
3.52888
3.7449
3.97459
4.20817
4.43773
4.6512
4.83444
4.97002
5.06014
5.08672
5.04355
4.92798
4.73984
4.48163
4.1619
3.79657
3.40212
2.99911
2.61162
2.25706
1.94834
1.68162
1.54801
1.50887
1.56257
1.64115
1.65488
1.62927
1.59114
1.60023
1.65719
1.75212
1.8774
2.03225
2.22559
2.44841
2.68419
2.92207
3.15567
3.38141
3.59721
3.80211
3.99548
4.17703
4.34661
4.5043
4.65033
4.78484
4.90809
5.02032
5.12196
5.21336
5.295
5.36727
5.43057
5.48559
5.53269
5.57152
5.60122
5.62167
5.6329
5.6361
5.63317
5.62402
5.60955
5.59024
5.56761
5.54259
5.51565
5.48714
5.45698
5.42487
5.39023
5.35218
5.30966
5.26145
5.20627
5.14276
5.0696
4.98546
4.88911
4.77936
4.65495
4.51457
4.35707
4.18105
3.98345
3.76365
3.51763
3.23898
2.93316
2.60536
2.26938
1.94318
1.64346
1.38403
1.17324
1.00852
0.886247
0.794113
0.726733
0.674939
0.634609
0.602076
0.573452
0.545542
0.526111
0.506082
0.4908
0.478169
0.464853
0.458713
0.451424
0.449008
0.444257
0.448359
0.454305
0.460271
0.465637
0.472586
0.481199
0.491295
0.504267
0.519963
0.539593
0.561631
0.585307
0.609121
0.632521
0.65356
0.670996
0.687789
0.0555551
0.25142
0.403937
0.513868
0.600648
0.673166
0.735947
0.791646
0.842096
0.888654
0.932401
0.974167
1.01466
1.05448
1.09415
1.13411
1.17474
1.21635
1.25918
1.30335
1.34893
1.39589
1.44416
1.49357
1.54391
1.59485
1.64613
1.69747
1.74895
1.7997
1.84989
1.90034
1.95113
2.00228
2.054
2.10642
2.15984
2.21465
2.27153
2.3313
2.3955
2.46601
2.54532
2.63722
2.74616
2.87637
3.03338
3.2236
3.45527
3.69935
3.96146
4.244
4.53333
4.81589
5.07615
5.29687
5.46239
5.56227
5.5831
5.52006
5.37044
5.13421
4.81677
4.43279
3.99781
3.53606
3.07947
2.66061
2.28615
1.96699
1.78398
1.70045
1.68236
1.68803
1.66794
1.62604
1.6075
1.62919
1.69009
1.78364
1.90628
2.06094
2.25621
2.47854
2.71445
2.95396
3.1907
3.42054
3.64119
3.85124
4.05013
4.23742
4.41292
4.57657
4.72851
4.86866
4.99706
5.11363
5.21869
5.31221
5.39446
5.4653
5.52496
5.57416
5.61334
5.64176
5.65885
5.66566
5.66232
5.64955
5.62785
5.5988
5.56413
5.52531
5.4841
5.44185
5.39959
5.35794
5.3171
5.27688
5.23656
5.19513
5.15116
5.10321
5.04952
4.98847
4.91817
4.83689
4.74278
4.63422
4.5092
4.36556
4.20143
4.0146
3.79759
3.54956
3.27059
2.96076
2.62948
2.28986
1.95778
1.65186
1.38583
1.16785
0.998345
0.869683
0.775194
0.704603
0.653772
0.611875
0.579346
0.5513
0.525418
0.501381
0.482911
0.465279
0.451134
0.440738
0.430497
0.426284
0.418203
0.418239
0.419911
0.423792
0.426435
0.431566
0.43707
0.44562
0.455888
0.469564
0.486691
0.507277
0.530658
0.556023
0.582772
0.609192
0.634086
0.655196
0.671092
0.684109
0.0564785
0.252804
0.407831
0.518875
0.60658
0.680073
0.743988
0.801002
0.852885
0.901164
0.946887
0.990774
1.03343
1.07536
1.11698
1.15863
1.20061
1.24317
1.28649
1.33065
1.37569
1.42158
1.46831
1.51579
1.56391
1.6124
1.66102
1.70951
1.75777
1.80566
1.85292
1.89918
1.94467
1.98939
2.03416
2.07885
2.12358
2.16865
2.21468
2.26268
2.31419
2.37138
2.43685
2.5145
2.60985
2.72948
2.88096
3.07092
3.30364
3.59144
3.89204
4.20803
4.55267
4.90225
5.2419
5.55192
5.81225
6.00463
6.10954
6.12218
6.03568
5.84777
5.55955
5.18144
4.72812
4.22195
3.69809
3.20322
2.74791
2.34891
2.06208
1.89734
1.81919
1.75089
1.6862
1.65523
1.64728
1.67297
1.73169
1.81961
1.93558
2.08473
2.27539
2.49367
2.7273
2.96677
3.20548
3.43851
3.66284
3.87688
4.08028
4.27272
4.45388
4.62362
4.78189
4.92825
5.06214
5.18323
5.2915
5.38667
5.4685
5.53697
5.59175
5.63348
5.66176
5.67714
5.67892
5.66735
5.64307
5.60757
5.56251
5.51003
5.45234
5.39173
5.33032
5.26991
5.21184
5.15691
5.10536
5.05692
5.01078
4.96557
4.91959
4.87093
4.81753
4.75732
4.68801
4.60712
4.51227
4.40114
4.27068
4.11708
3.93737
3.72872
3.48834
3.2143
2.91226
2.58934
2.25663
1.93105
1.62927
1.36671
1.15036
0.981431
0.852771
0.755855
0.685959
0.632991
0.5935
0.558507
0.532275
0.505984
0.484356
0.462818
0.446267
0.431653
0.418223
0.410619
0.404097
0.400644
0.395071
0.395148
0.396002
0.399845
0.403045
0.410855
0.418379
0.430267
0.44372
0.460788
0.481119
0.505328
0.534135
0.565603
0.597833
0.628098
0.654016
0.673819
0.686495
0.693346
0.0561751
0.252425
0.406019
0.516746
0.604557
0.678487
0.743162
0.801276
0.854632
0.904873
0.952795
0.999019
1.04399
1.0883
1.1323
1.1762
1.2202
1.26447
1.30912
1.35415
1.39955
1.44536
1.49177
1.53881
1.58629
1.63399
1.68161
1.72878
1.77513
1.82069
1.86545
1.9094
1.95214
1.99321
2.0323
2.06985
2.10628
2.14195
2.17732
2.21446
2.25484
2.30072
2.35543
2.4244
2.51336
2.6284
2.77504
2.95792
3.18261
3.45366
3.76826
4.13941
4.51669
4.91367
5.31935
5.70873
6.06152
6.35158
6.55962
6.66018
6.65501
6.53774