/*--------------------------------*- C++ -*----------------------------------*\
| =========                 |                                                 |
| \\      /  F ield         | OpenFOAM: The Open Source CFD Toolbox           |
|  \\    /   O peration     | Version:  2112                                  |
|   \\  /    A nd           | Website:  www.openfoam.com                      |
|    \\/     M anipulation  |                                                 |
\*---------------------------------------------------------------------------*/
FoamFile
{
    version     2.0;
    format      ascii;
    arch        "LSB;label=32;scalar=64";
    class       volScalarField;
    location    "100";
    object      nut;
}
// * * * * * * * * * * * * * * * * * * * * * * * * * * * * * * * * * * * * * //

dimensions      [0 2 -1 0 0 0 0];

internalField   nonuniform List<scalar> 
12225
(
5.36155e-06
8.10564e-06
9.99781e-06
1.11266e-05
1.1702e-05
1.18797e-05
1.19522e-05
1.18562e-05
1.17039e-05
1.15384e-05
1.1376e-05
1.12179e-05
1.10839e-05
1.09454e-05
1.0854e-05
1.07269e-05
1.06878e-05
1.05765e-05
0.000266092
6.27984e-05
4.34893e-05
3.71631e-05
3.42058e-05
3.30956e-05
3.26862e-05
3.30845e-05
3.37155e-05
3.37792e-05
3.33572e-05
3.35239e-05
3.33982e-05
3.38037e-05
3.38531e-05
3.44416e-05
3.47138e-05
3.55939e-05
0.00062838
0.000326404
0.000225467
0.000160988
0.000132651
0.000113104
0.000101937
9.21513e-05
8.62835e-05
7.93476e-05
7.49997e-05
6.99492e-05
6.69623e-05
6.3349e-05
6.14167e-05
5.8785e-05
5.76604e-05
5.57336e-05
0.000768207
0.000630209
0.000528417
0.000428669
0.000365844
0.00031415
0.000284317
0.000254213
0.000236669
0.000215715
0.000203298
0.000187943
0.000179194
0.000167707
0.000161571
0.000152874
0.000148723
0.00014172
0.000849923
0.000772063
0.000728476
0.000668229
0.000613718
0.000555201
0.000517526
0.000475506
0.000449252
0.000418384
0.00039923
0.00037542
0.000361186
0.000342374
0.000331874
0.000316792
0.000309377
0.000296282
0.0008506
0.000831893
0.000816047
0.000789246
0.000764086
0.000726686
0.000699085
0.000664183
0.000639829
0.000610281
0.000590305
0.000565531
0.000549485
0.000528533
0.000515968
0.0004981
0.000488792
0.000472522
0.000852402
0.000846707
0.000840196
0.00083256
0.000824407
0.000809684
0.000795978
0.000776157
0.000760934
0.000741024
0.000726376
0.000707634
0.0006945
0.000677222
0.000666054
0.000650275
0.000641428
0.000626383
0.000851902
0.000850298
0.000848366
0.000846175
0.000842733
0.000838228
0.000832396
0.00082525
0.000818196
0.000808273
0.000800281
0.000789562
0.00078144
0.000770508
0.000762831
0.000752079
0.000745389
0.000734575
0.000851655
0.000850659
0.000849803
0.000848729
0.000847686
0.000845948
0.000844172
0.000841455
0.000838619
0.000834906
0.000831114
0.000826702
0.000822507
0.000817238
0.00081289
0.000807192
0.000802953
0.000796815
0.000851595
0.000850657
0.000849943
0.000849063
0.000848412
0.000847482
0.000846706
0.000845565
0.0008445
0.000843003
0.000841597
0.000839689
0.000837982
0.00083569
0.000833667
0.000831137
0.00082898
0.000826077
0.00085157
0.000850662
0.000849918
0.000849096
0.000848435
0.000847678
0.000847064
0.000846318
0.000845698
0.000844899
0.000844226
0.000843316
0.000842554
0.0008415
0.000840639
0.000839423
0.000838522
0.000837164
0.000851556
0.00085067
0.000849894
0.000849096
0.000848403
0.000847681
0.00084706
0.000846396
0.000845828
0.000845198
0.000844662
0.000844036
0.000843507
0.00084286
0.000842321
0.000841637
0.000841087
0.000840374
0.000851547
0.000850675
0.000849878
0.000849093
0.000848377
0.000847669
0.000847025
0.000846384
0.000845804
0.000845218
0.000844691
0.000844149
0.000843662
0.000843151
0.000842691
0.000842202
0.00084176
0.000841289
0.000851541
0.000850676
0.000849866
0.000849087
0.000848357
0.000847654
0.000846995
0.000846359
0.000845764
0.000845187
0.000844648
0.000844123
0.000843633
0.000843154
0.000842704
0.000842265
0.00084185
0.000841444
0.000851538
0.000850676
0.000849859
0.00084908
0.000848343
0.000847638
0.000846972
0.000846334
0.000845731
0.000845152
0.000844605
0.000844079
0.000843581
0.000843103
0.000842649
0.000842214
0.000841799
0.000841402
0.000851538
0.000850674
0.000849854
0.000849073
0.000848332
0.000847625
0.000846955
0.000846313
0.000845705
0.000845122
0.00084457
0.00084404
0.000843537
0.000843054
0.000842595
0.000842156
0.000841736
0.000841337
0.000851537
0.000850674
0.000849851
0.00084907
0.000848325
0.000847618
0.000846942
0.0008463
0.000845686
0.000845102
0.000844543
0.000844011
0.000843502
0.000843017
0.000842552
0.00084211
0.000841685
0.000841281
0.000851538
0.000850679
0.000849856
0.000849078
0.000848332
0.000847626
0.000846947
0.000846306
0.000845688
0.000845104
0.000844541
0.000844008
0.000843494
0.000843006
0.000842536
0.000842091
0.000841661
0.000841254
0.000851536
0.000850675
0.00084985
0.00084907
0.00084832
0.000847613
0.000846931
0.000846288
0.000845666
0.000845079
0.000844511
0.000843976
0.000843456
0.000842966
0.000842491
0.000842042
0.000841607
0.000841196
0.000851534
0.000850677
0.000849848
0.000849072
0.000848319
0.000847614
0.000846928
0.000846286
0.00084566
0.000845075
0.000844503
0.000843967
0.000843443
0.000842952
0.000842472
0.000842022
0.000841583
0.000841169
0.000851539
0.000850673
0.000849855
0.00084907
0.000848328
0.000847614
0.000846939
0.000846288
0.000845672
0.000845076
0.000844512
0.000843965
0.000843448
0.000842946
0.000842469
0.000842007
0.000841568
0.000841142
0.000851535
0.00085068
0.000849855
0.000849081
0.000848331
0.000847627
0.00084694
0.000846296
0.000845662
0.000845067
0.000844474
0.000843918
0.000843357
0.000842834
0.000842299
0.000841802
0.000841289
0.000840816
0.000851528
0.000850697
0.000849859
0.000849096
0.000848311
0.000847592
0.000846825
0.00084612
0.000845348
0.000844616
0.000843795
0.000843015
0.000842135
0.000841312
0.000840372
0.000839517
0.000838508
0.00083764
0.000851541
0.000850761
0.000849886
0.00084901
0.000847854
0.000846634
0.000845082
0.000843576
0.000841705
0.000839785
0.000837459
0.000835108
0.000832463
0.000829824
0.000826998
0.000824106
0.000821117
0.000818421
0.000852001
0.00085087
0.00084924
0.000846717
0.000841999
0.000836654
0.000830229
0.000823806
0.000816559
0.000809416
0.000800881
0.00079308
0.000784245
0.00077651
0.000767791
0.000760455
0.000752003
0.000745265
0.00085586
0.000849303
0.000833574
0.000819431
0.000797342
0.000777192
0.000754708
0.000734647
0.000712735
0.000693743
0.000673522
0.000656609
0.000638717
0.000624201
0.000608572
0.000596302
0.000582603
0.000572314
0.000884388
0.000820283
0.000756832
0.000686458
0.00062549
0.000578028
0.000534627
0.000500914
0.000469155
0.000444719
0.000420957
0.000402924
0.000384724
0.000371181
0.000356869
0.000346468
0.00033476
0.000326379
0.000991772
0.000571449
0.000427833
0.000341145
0.000286063
0.000249576
0.000221744
0.000202349
0.000186112
0.000174607
0.000164148
0.000156767
0.000149573
0.000144605
0.00013939
0.000135851
0.000131664
0.000128625
0.000498913
0.000135774
9.2343e-05
7.50727e-05
6.53964e-05
5.95831e-05
5.58047e-05
5.35563e-05
5.207e-05
5.14147e-05
5.10172e-05
5.11555e-05
5.13348e-05
5.16069e-05
5.0919e-05
5.03363e-05
4.99061e-05
4.9505e-05
6.0426e-06
8.06385e-06
9.68881e-06
1.09503e-05
1.18576e-05
1.25105e-05
1.29236e-05
1.32184e-05
1.33512e-05
1.34409e-05
1.34826e-05
1.34717e-05
1.34383e-05
1.33891e-05
1.33332e-05
1.32738e-05
1.32124e-05
1.31506e-05
3.01911e-08
1.01203e-06
2.25539e-06
3.892e-06
5.57871e-06
7.29086e-06
8.66616e-06
9.41279e-06
1.07163e-05
1.13072e-05
1.21934e-05
1.24457e-05
1.4222e-05
1.52084e-05
1.67415e-05
1.79842e-05
1.99089e-05
2.19953e-05
2.44927e-05
2.72175e-05
3.03359e-05
3.35906e-05
3.71473e-05
4.07743e-05
4.45945e-05
4.82546e-05
5.17852e-05
5.51006e-05
5.83007e-05
6.12672e-05
6.40287e-05
6.65818e-05
6.9069e-05
7.13118e-05
7.35399e-05
7.56452e-05
7.78517e-05
7.98836e-05
8.1931e-05
8.38365e-05
8.57705e-05
8.75373e-05
8.93249e-05
9.09429e-05
9.24757e-05
9.37202e-05
9.51348e-05
9.62133e-05
9.66442e-05
9.71717e-05
9.91321e-05
9.99232e-05
9.91757e-05
9.73546e-05
9.70679e-05
9.78235e-05
9.91318e-05
9.80045e-05
9.47678e-05
9.0388e-05
8.4137e-05
7.59126e-05
6.57026e-05
5.24342e-05
4.29553e-05
3.5846e-05
3.03687e-05
2.6012e-05
2.23983e-05
1.93071e-05
1.62421e-05
1.17389e-05
7.37689e-06
2.94314e-06
1.62814e-06
2.47037e-06
4.7806e-06
9.57855e-06
1.63246e-05
1.93382e-05
1.91575e-05
1.50331e-05
1.30618e-05
1.67262e-05
2.38684e-05
3.33905e-05
4.84698e-05
4.83848e-05
5.32698e-05
4.93371e-05
5.20155e-05
4.90548e-05
5.04504e-05
4.86205e-05
4.88497e-05
4.79894e-05
4.75404e-05
4.69409e-05
4.62868e-05
4.55424e-05
4.5119e-05
4.4354e-05
4.28514e-05
4.25703e-05
4.19521e-05
4.13761e-05
4.08625e-05
4.03571e-05
3.99558e-05
3.96256e-05
3.95396e-05
3.92224e-05
3.91299e-05
3.8876e-05
3.82995e-05
3.80746e-05
3.77246e-05
3.74334e-05
3.72478e-05
3.70037e-05
3.67078e-05
3.65921e-05
3.63144e-05
3.64781e-05
3.63989e-05
3.65498e-05
3.66183e-05
3.67716e-05
3.69259e-05
3.71187e-05
3.73251e-05
3.75359e-05
3.77608e-05
3.79862e-05
3.82224e-05
3.84538e-05
3.86955e-05
3.89592e-05
3.9235e-05
3.95162e-05
3.98266e-05
4.02156e-05
4.05987e-05
4.11602e-05
4.16087e-05
4.23374e-05
4.29065e-05
4.37512e-05
4.45906e-05
4.58211e-05
4.81556e-05
4.97627e-05
5.21994e-05
5.33125e-05
5.27391e-05
5.2736e-05
5.21121e-05
5.20399e-05
5.18311e-05
5.16505e-05
5.15278e-05
5.14254e-05
5.12186e-05
5.12107e-05
5.12655e-05
5.09564e-05
5.1426e-05
5.1935e-05
5.27321e-05
5.31713e-05
5.33756e-05
5.38439e-05
5.38897e-05
5.25651e-05
4.86395e-05
4.54996e-05
4.24996e-05
3.98548e-05
3.78032e-05
3.39187e-05
1.07745e-07
3.15245e-06
8.97665e-06
1.48479e-05
2.13094e-05
2.82589e-05
3.49706e-05
4.10086e-05
4.74272e-05
5.17833e-05
5.50258e-05
5.76919e-05
6.0875e-05
6.45975e-05
6.98061e-05
7.43643e-05
8.15058e-05
9.04029e-05
0.000101062
0.000114213
0.00012931
0.000146363
0.000164824
0.000184261
0.000205515
0.000231105
0.000260676
0.000282802
0.000313777
0.000336646
0.000368336
0.000389151
0.000416098
0.000447679
0.000467587
0.000488465
0.00050689
0.000526047
0.000545472
0.000565239
0.000585487
0.000605757
0.000625823
0.000645296
0.00066394
0.000681823
0.000699017
0.000711738
0.000723582
0.000733616
0.000746065
0.000757597
0.000762351
0.000759617
0.000751439
0.000738523
0.000721338
0.000706224
0.000695993
0.000677487
0.000632346
0.000558776
0.000447773
0.000324797
0.000214901
0.000138337
0.000100538
7.33567e-05
5.37718e-05
3.77143e-05
2.71536e-05
1.83418e-05
1.31615e-05
1.20112e-05
1.33525e-05
2.04369e-05
3.97758e-05
7.60968e-05
0.000107499
0.000127203
0.00012555
9.28392e-05
6.14404e-05
8.59888e-05
9.25206e-05
0.000101037
0.00012441
0.000155847
0.000194639
0.000223366
0.000248494
0.000283524
0.000305912
0.000348021
0.000372307
0.000388063
0.000441114
0.000464545
0.000498119
0.000517557
0.000561648
0.000567692
0.000585843
0.000592258
0.000602981
0.00061309
0.000610145
0.000604691
0.00061228
0.000598843
0.000611662
0.000598968
0.000611144
0.000604138
0.000585523
0.000562591
0.000558678
0.000551918
0.000548517
0.000558881
0.000515609
0.000508063
0.000485585
0.000481523
0.000466162
0.000459417
0.0004513
0.000443077
0.000435909
0.000428233
0.000420603
0.000413302
0.000406345
0.000399676
0.000392531
0.000384578
0.000375504
0.000370009
0.000364715
0.000360618
0.000355247
0.000350119
0.000346029
0.000342347
0.000344478
0.000349711
0.000348007
0.000349217
0.000348258
0.000351935
0.000353508
0.000353067
0.000356627
0.000360149
0.000365089
0.000366454
0.000371609
0.000376357
0.000381122
0.000384852
0.000390456
0.000395104
0.000399763
0.000403933
0.000409371
0.000411319
0.000409927
0.000410137
0.000410895
0.000407748
0.000403446
0.000398168
0.00039289
0.000385714
0.000378411
0.0003686
0.000360144
0.000344864
0.000336962
0.000291557
2.50685e-07
6.22072e-06
2.54943e-05
4.52375e-05
6.7669e-05
9.07043e-05
0.000111785
0.00012862
0.000142186
0.000150723
0.00015593
0.000159533
0.000163768
0.000170272
0.000180592
0.000195007
0.000213252
0.000235386
0.000261497
0.000293442
0.00032932
0.000365636
0.000404149
0.000446471
0.000490176
0.000535749
0.000582115
0.000626849
0.000671188
0.000711276
0.000751027
0.000790253
0.00083051
0.000870479
0.000906302
0.000941645
0.000975834
0.00101005
0.0010439
0.00107726
0.00110988
0.00114141
0.00117144
0.00119955
0.0012253
0.00124814
0.00126727
0.00128196
0.00129189
0.00129835
0.00130474
0.00130609
0.0013015
0.00129084
0.00127471
0.00125338
0.0012264
0.00119571
0.00116247
0.00112567
0.00108922
0.00104887
0.000977248
0.00084335
0.00065816
0.00045795
0.000298429
0.000186103
0.000118875
8.01767e-05
5.57407e-05
4.07891e-05
3.31868e-05
2.98462e-05
2.85661e-05
3.46327e-05
6.10647e-05
0.000102072
0.000136802
0.000161585
9.81761e-05
0.000112724
0.000130484
0.000165241
0.000227745
0.000307363
0.000395535
0.000475198
0.000564645
0.000643898
0.0007238
0.000797652
0.000864529
0.00092719
0.000979694
0.0010262
0.00107649
0.00111694
0.00115553
0.0011866
0.00122004
0.00124322
0.0012687
0.00128797
0.00130378
0.00131694
0.00132304
0.00132735
0.00132873
0.00132437
0.00131059
0.00129672
0.001306
0.00130805
0.00129334
0.0012444
0.00124031
0.00122541
0.0012102
0.00121159
0.00115795
0.00115405
0.00110166
0.001074
0.00104613
0.00102547
0.000995151
0.000960716
0.000936583
0.000910751
0.000885842
0.000863361
0.00084148
0.000821707
0.000804301
0.000785514
0.000762357
0.00073994
0.000724998
0.000705732
0.000693488
0.000679681
0.000667046
0.000652113
0.000647284
0.000637683
0.000634286
0.000634656
0.000629133
0.000629471
0.000629485
0.00062871
0.000629951
0.000632003
0.000635293
0.000637711
0.000642359
0.000648296
0.000654976
0.000661776
0.000666473
0.000660239
0.0006646
0.00067719
0.000688276
0.000696176
0.000699894
0.000708496
0.000721599
0.000732407
0.000732665
0.000729752
0.000725928
0.000717066
0.000707702
0.000691298
0.000678721
0.000652998
0.000637114
0.000580952
4.63558e-07
1.32384e-05
6.05835e-05
0.000110732
0.000160604
0.000207757
0.000248621
0.000281019
0.000305312
0.000320691
0.000328504
0.000331105
0.000331547
0.000333081
0.000338738
0.000350749
0.000370525
0.000398834
0.000435513
0.000480079
0.000531417
0.000586185
0.000643009
0.000702986
0.000761025
0.000820812
0.000878705
0.000934969
0.000987513
0.00103675
0.00108403
0.00112842
0.00117082
0.00121119
0.00124906
0.00128514
0.00131942
0.00135243
0.00138413
0.00141444
0.00144321
0.0014702
0.00149509
0.00151757
0.00153726
0.00155371
0.00156651
0.00157498
0.00157788
0.00157618
0.00154755
0.00149519
0.00146402
0.00144451
0.00143471
0.00143268
0.00142943
0.00141083
0.00137029
0.00132664
0.00128156
0.00123586
0.00119011
0.00113572
0.00103993
0.000868032
0.000648226
0.000433097
0.000276919
0.000174241
0.000119656
8.14003e-05
6.48547e-05
5.62238e-05
4.99032e-05
5.27253e-05
8.08908e-05
0.000142267
0.000148874
0.000134658
0.000157881
0.000203638
0.000289892
0.000430804
0.000543666
0.000647327
0.000773992
0.000895997
0.00101657
0.00112268
0.00122269
0.00131019
0.00138998
0.00146047
0.00152434
0.00158264
0.00163511
0.00168287
0.00172716
0.00176582
0.00179989
0.00183027
0.00185619
0.00187785
0.00188758
0.0019056
0.00192258
0.00192339
0.0019384
0.00193694
0.00191695
0.00192341
0.00190792
0.00190375
0.00189593
0.00186854
0.0018685
0.0018425
0.00182429
0.00179636
0.001751
0.00173392
0.00170175
0.00166135
0.00161026
0.00157389
0.00153548
0.00149814
0.00144916
0.00139753
0.00134102
0.00129821
0.00125407
0.00120709
0.00116154
0.00111775
0.00107628
0.00103828
0.00100361
0.000972535
0.000938906
0.000915994
0.000891722
0.000869488
0.000851043
0.000834466
0.000820592
0.000808944
0.000797381
0.000785795
0.000783541
0.000773066
0.000762667
0.000741934
0.000723034
0.000705328
0.000688629
0.000673001
0.000659769
0.000650787
0.000649754
0.000653802
0.00066131
0.000671474
0.000681059
0.00069258
0.000701485
0.000714603
0.000731405
0.000747427
0.000762796
0.000775882
0.000788851
0.000797096
0.000804866
0.000803948
0.000802237
0.000781535
0.000758587
0.000697679
6.70094e-07
2.07235e-05
9.61517e-05
0.000186108
0.000272211
0.000348553
0.000414583
0.000468965
0.000511008
0.000539932
0.000557656
0.000566021
0.000568113
0.000567814
0.000569317
0.000576471
0.000592289
0.000618617
0.000655864
0.000703257
0.000758975
0.000819875
0.000884416
0.000949793
0.00101473
0.00107767
0.00113737
0.00119324
0.00124468
0.00129178
0.00133513
0.00137503
0.00141134
0.00144506
0.00147652
0.00150608
0.0015339
0.00156002
0.00158469
0.001608
0.00162982
0.00164995
0.00166815
0.00168415
0.00169764
0.00170829
0.00171579
0.00171968
0.00171829
0.00171366
0.00169077
0.00162074
0.00155377
0.00150169
0.00146608
0.00144315
0.00143314
0.00143422
0.00143622
0.00141805
0.0013677
0.00131701
0.00126953
0.00122302
0.00117622
0.00110269
0.000959587
0.000742346
0.000518664
0.000339573
0.000232986
0.000161685
0.000123422
9.80891e-05
8.34766e-05
7.86714e-05
0.000121372
0.000141334
0.000170001
0.000211041
0.000288317
0.000430598
0.000606246
0.000724334
0.000850215
0.000985772
0.0011323
0.0012721
0.00140374
0.00152232
0.00163077
0.00172645
0.00181272
0.00188974
0.00196203
0.00202535
0.00208047
0.00212713
0.00217764
0.00222498
0.00225525
0.00229056
0.0023197
0.0023445
0.00236711
0.00239185
0.00239946
0.00242209
0.00242224
0.00242692
0.00242939
0.0024381
0.00243371
0.00241774
0.0024161
0.00239545
0.00239192
0.00237151
0.00234784
0.00231852
0.00228294
0.00222714
0.00216873
0.00211113
0.00205227
0.00199244
0.00193049
0.001867
0.00180134
0.00173401
0.00166502
0.00159523
0.00152447
0.0014534
0.00138294
0.00131357
0.00124638
0.00118255
0.00112252
0.00106725
0.00101672
0.000972748
0.000934605
0.0009019
0.000873462
0.000848727
0.000826291
0.0008044
0.000781319
0.000757386
0.000733203
0.000710216
0.00068909
0.000669246
0.000649854
0.000631237
0.000614889
0.000602216
0.000593707
0.000591321
0.000592406
0.000596014
0.00060244
0.00061114
0.000620688
0.000632077
0.00064314
0.000656568
0.000672479
0.000689666
0.000707086
0.000724251
0.000740868
0.000753569
0.000765544
0.000770429
0.000772662
0.000761426
0.000746329
0.000708506
8.81744e-07
2.7761e-05
0.000126128
0.000248166
0.000364856
0.000470923
0.000563341
0.000641288
0.000703861
0.000752412
0.000786959
0.000809602
0.000822738
0.000829777
0.000834881
0.000842276
0.000855725
0.000877941
0.000910177
0.000952202
0.0010025
0.00105863
0.00111812
0.0011783
0.00123709
0.00129318
0.00134585
0.00139282
0.00143511
0.00147322
0.0015076
0.00153878
0.00156745
0.00159355
0.00161734
0.00163932
0.00165985
0.00167915
0.00169739
0.00171453
0.0017305
0.00174516
0.00175834
0.00176985
0.00177946
0.00178689
0.00179182
0.00179403
0.00179152
0.001787
0.00178238
0.00176992
0.00175255
0.00170545
0.00163122
0.00156813
0.00152225
0.00149229
0.00147491
0.00145783
0.00141125
0.00135516
0.00130051
0.00124923
0.00120586
0.00116367
0.00110247
0.000976807
0.000775122
0.000554242
0.000384124
0.000264295
0.0001812
0.000129618
0.000110217
0.000126057
0.000175001
0.000203229
0.000264192
0.000354245
0.000534792
0.000710236
0.000841967
0.000976181
0.00111736
0.0012703
0.00142895
0.0015794
0.00171994
0.00184769
0.00196392
0.00206525
0.00215576
0.00223867
0.00231411
0.00238133
0.00244127
0.00249535
0.00253806
0.00258594
0.00262715
0.00267138
0.00270086
0.00271682
0.00274396
0.0027671
0.00278672
0.00281084
0.0028219
0.00282012
0.00283366
0.00283371
0.00283345
0.00282535
0.00281916
0.00280772
0.00279554
0.00277696
0.00275443
0.00271221
0.00264929
0.00258677
0.00252316
0.00245934
0.00239448
0.00232829
0.00226022
0.00219006
0.00211726
0.00204186
0.00196371
0.00188307
0.00180008
0.00171522
0.00162931
0.00154258
0.0014562
0.00137167
0.00128989
0.00121228
0.00113968
0.00107389
0.00101468
0.000961992
0.000914527
0.000872103
0.000832586
0.000796352
0.000761939
0.000730721
0.000700456
0.000670991
0.000643475
0.000615875
0.000590719
0.000568808
0.000551597
0.000539339
0.000531153
0.000527278
0.000527311
0.00052983
0.00053622
0.00054471
0.000554974
0.000566062
0.000578646
0.000591943
0.000608237
0.000625587
0.000645831
0.000664857
0.000684519
0.000701308
0.000717427
0.000728148
0.000733669
0.000732067
0.00072457
0.000704391
1.15397e-06
3.51677e-05
0.000149706
0.000296146
0.000438998
0.000568036
0.00068111
0.000778074
0.00085999
0.000926556
0.00097895
0.00101815
0.00104603
0.00106447
0.0010786
0.00109151
0.00110659
0.00112663
0.00115334
0.00118719
0.00122751
0.00127285
0.0013216
0.00136909
0.00141505
0.00145848
0.00149864
0.00153586
0.00156923
0.00159855
0.00162429
0.00164686
0.00166702
0.00168533
0.00170227
0.00171806
0.00173291
0.00174699
0.0017604
0.00177315
0.00178522
0.00179655
0.00180705
0.00181657
0.00182494
0.00183193
0.00183724
0.00184046
0.00184045
0.00183691
0.00183584
0.00182856
0.00181589
0.00179336
0.0017623
0.00172628
0.00168345
0.00163418
0.00157964
0.00152048
0.00145809
0.00139479
0.00133274
0.00127398
0.00122076
0.00117231
0.00113473
0.00107869
0.000961774
0.000775401
0.000573356
0.000381146
0.0002453
0.000184681
0.000176409
0.000239614
0.00024291
0.000311613
0.000401278
0.000584187
0.000775199
0.000905994
0.00104348
0.00118763
0.00134691
0.00152012
0.00169096
0.00185157
0.00199957
0.00213195
0.00224796
0.00235359
0.0024477
0.00253208
0.00260797
0.00267561
0.0027371
0.00279209
0.00284008
0.00288555
0.00292569
0.00296228
0.00299282
0.0030187
0.00304488
0.00306757
0.00308825
0.00311176
0.0031158
0.00312886
0.00312782
0.00313328
0.00312714
0.00312357
0.00311703
0.00311011
0.00309755
0.00308132
0.00305307
0.00298771
0.00292302
0.00285893
0.00279446
0.00272956
0.00266404
0.00259742
0.00252922
0.00245889
0.00238593
0.00230996
0.00223076
0.00214818
0.00206221
0.00197304
0.00188114
0.00178676
0.0016908
0.00159457
0.00149912
0.0014058
0.0013159
0.00123086
0.00115177
0.00107909
0.0010119
0.000949594
0.000888027
0.000832762
0.000781674
0.000730959
0.000682523
0.000637729
0.000597626
0.000562316
0.000533147
0.000509961
0.000493293
0.000481912
0.000474707
0.000471514
0.000472007
0.000475565
0.000482743
0.000491721
0.00050343
0.000515332
0.000527565
0.000542262
0.000559633
0.000577794
0.000598658
0.000618258
0.000639581
0.000659111
0.000679333
0.000698716
0.000710983
0.000718938
0.00071832
0.000709185
1.50469e-06
4.33576e-05
0.000172143
0.000335772
0.000497487
0.000645197
0.000775647
0.000888424
0.000983874
0.00106273
0.00112625
0.0011768
0.00121588
0.00124644
0.00127
0.00128961
0.0013081
0.00132787
0.00135061
0.0013771
0.00140723
0.00144017
0.00147454
0.00151017
0.00154515
0.00157795
0.00160776
0.00163436
0.00165795
0.00167882
0.00169714
0.00171327
0.00172767
0.00174075
0.00175287
0.00176427
0.00177515
0.00178568
0.00179596
0.00180605
0.001816
0.00182582
0.0018355
0.00184499
0.00185417
0.00186284
0.00187069
0.00187725
0.0018822
0.00188279
0.00188251
0.001883
0.0018778
0.00185957
0.0018352
0.00180358
0.00176349
0.00171461
0.00165744
0.00159316
0.00152327
0.00145122
0.00137987
0.00131245
0.00125014
0.00119394
0.00114379
0.00110293
0.0010498
0.000936393
0.000742888
0.000486924
0.000307127
0.000236639
0.000270357
0.000297475
0.000345613
0.00042947
0.000594824
0.00081579
0.000941351
0.00107864
0.00122535
0.00138406
0.00156161
0.00174782
0.00192671
0.0020949
0.00224738
0.00238125
0.00250466
0.00261256
0.00270886
0.00279455
0.00287103
0.00293909
0.00299979
0.00305337
0.0031005
0.00314279
0.00318008
0.00321285
0.00324093
0.00326518
0.00328702
0.00330546
0.00332174
0.00333563
0.00334349
0.00335062
0.00335307
0.00335382
0.00335095
0.00334431
0.00333686
0.00332877
0.00331272
0.00329764
0.00324515
0.00317808
0.00311277
0.00304887
0.00298568
0.00292275
0.00285971
0.00279594
0.00273087
0.00266383
0.00259418
0.00252136
0.00244491
0.00236455
0.00228007
0.00219153
0.00209902
0.00200279
0.00190273
0.00180005
0.00169643
0.00159308
0.00149085
0.00139068
0.00129368
0.00120052
0.00110894
0.00101776
0.000931046
0.000847914
0.000768846
0.00069816
0.000634708
0.000581832
0.000539407
0.000505693
0.000479561
0.000459416
0.000446408
0.000438188
0.000434011
0.000433291
0.000435587
0.000441516
0.000449339
0.000459328
0.000471152
0.000484083
0.000498826
0.000515053
0.000532973
0.000552141
0.000573021
0.000594338
0.000617205
0.000639751
0.00066236
0.000684476
0.000701259
0.000718008
0.000729321
0.000729807
1.93068e-06
5.20971e-05
0.000194305
0.000372171
0.000548708
0.000710677
0.000853983
0.000977878
0.00108292
0.00117026
0.00124161
0.00129966
0.0013458
0.001382
0.00141053
0.00143378
0.00145405
0.0014733
0.00149307
0.00151427
0.00153718
0.00156153
0.00158659
0.00161166
0.00163587
0.00165874
0.00167967
0.00169843
0.00171504
0.00172964
0.00174243
0.00175368
0.00176372
0.00177286
0.00178138
0.00178953
0.00179749
0.00180544
0.0018135
0.00182179
0.00183044
0.00183958
0.0018493
0.00185967
0.0018707
0.00188229
0.00189418
0.00190594
0.0019169
0.00192671
0.00193139
0.00193493
0.00194092
0.00193522
0.00191582
0.00188936
0.00185317
0.00180669
0.00174998
0.00168375
0.00160929
0.00152884
0.00144635
0.001369
0.00129745
0.00123187
0.0011721
0.00111931
0.00108726
0.00101155
0.000874618
0.000630211
0.000421196
0.000351202
0.000348326
0.000385863
0.000464745
0.000602671
0.000839169
0.000957294
0.00109071
0.00123517
0.00139154
0.0015637
0.00175697
0.00195226
0.00213677
0.00230963
0.00246281
0.00260313
0.00272679
0.00283602
0.00293295
0.0030186
0.00309435
0.00316109
0.00321966
0.00327051
0.00331437
0.00335275
0.00338567
0.00341336
0.00343655
0.00345586
0.00347213
0.00348491
0.00349522
0.0035028
0.00350704
0.00350924
0.00350865
0.00350579
0.00350066
0.00349208
0.00348161
0.00347002
0.00345426
0.00342247
0.00335221
0.00328522
0.0032213
0.00315985
0.00309999
0.00304104
0.00298227
0.00292301
0.00286243
0.00279995
0.00273482
0.00266636
0.00259382
0.00251653
0.00243369
0.00234573
0.00225316
0.00215595
0.00205449
0.00194977
0.00184239
0.00173248
0.00162002
0.00150491
0.00138597
0.00126233
0.00114196
0.00102446
0.00090997
0.000802681
0.000710004
0.000633646
0.000572194
0.00052396
0.000487047
0.000458714
0.000437633
0.000422075
0.000413792
0.000408988
0.000407909
0.000409808
0.000414351
0.000422377
0.000431329
0.000441302
0.000455091
0.000470306
0.000486588
0.000504041
0.000522982
0.000543465
0.000565786
0.000589761
0.000615305
0.000641794
0.000668504
0.000695777
0.00071897
0.000741733
0.000758852
0.000769426
2.42064e-06
6.09142e-05
0.000215583
0.000405957
0.000594721
0.00076781
0.000920552
0.00105201
0.00116292
0.00125473
0.00132961
0.00139093
0.00144019
0.00147909
0.00151
0.00153501
0.00155602
0.00157465
0.00159218
0.00160946
0.00162696
0.00164474
0.00166257
0.0016801
0.00169692
0.00171267
0.00172704
0.00173986
0.00175111
0.00176088
0.00176933
0.00177667
0.00178313
0.00178894
0.00179435
0.00179957
0.00180481
0.00181023
0.00181602
0.00182237
0.00182951
0.0018377
0.00184723
0.00185834
0.00187123
0.00188597
0.00190246
0.00192035
0.00193903
0.0019575
0.00197518
0.00198622
0.00199609
0.00200628
0.00199836
0.00197991
0.00194997
0.00190736
0.00185192
0.00178445
0.00170655
0.00162048
0.00153032
0.00144227
0.00136124
0.00128663
0.00121769
0.00115653
0.00110548
0.00104973
0.0009086
0.000730854
0.000571227
0.000408327
0.000428418
0.000498146
0.000614452
0.00082025
0.000963408
0.0010888
0.00122762
0.00137901
0.00154482
0.00173015
0.00193202
0.00213343
0.00232001
0.00249628
0.00265275
0.00279238
0.00291574
0.00302422
0.00311946
0.00320261
0.00327496
0.00333754
0.00339164
0.00343755
0.00347584
0.00350957
0.00353712
0.00355907
0.00357606
0.00358893
0.00359825
0.00360439
0.00360799
0.00360907
0.0036078
0.00360462
0.00359961
0.00359302
0.00358486
0.00357508
0.0035627
0.00354957
0.00351836
0.00344441
0.0033752
0.00331084
0.00325047
0.00319325
0.00313821
0.00308463
0.00303156
0.00297806
0.00292317
0.00286549
0.00280455
0.00274028
0.00267199
0.0025989
0.00252074
0.00243734
0.00234855
0.00225415
0.00215462
0.0020492
0.00193708
0.00181787
0.00168832
0.00154866
0.00140581
0.00125832
0.00111189
0.000965978
0.000835202
0.000724472
0.00063554
0.000566728
0.000514269
0.000474524
0.000445367
0.000422937
0.000407018
0.00039635
0.000392433
0.00039006
0.000391658
0.000395346
0.000401888
0.000409874
0.000419458
0.00043246
0.000447837
0.000464744
0.00048277
0.000502057
0.000523077
0.00054611
0.000571542
0.000599538
0.000630016
0.000662602
0.000696321
0.000730797
0.000762343
0.000791809
0.00081653
0.000831818
2.94582e-06
6.92697e-05
0.000234975
0.00043607
0.000634811
0.000816531
0.000976189
0.00111278
0.00122724
0.00132131
0.00139774
0.00146026
0.00150997
0.00154938
0.00158069
0.00160587
0.00162661
0.00164429
0.00166001
0.00167455
0.0016884
0.00170177
0.00171468
0.001727
0.00173852
0.00174905
0.0017584
0.00176647
0.00177323
0.00177897
0.00178379
0.00178779
0.00179103
0.00179346
0.00179546
0.0017973
0.00179921
0.00180141
0.0018041
0.00180759
0.00181224
0.0018185
0.00182683
0.00183766
0.00185144
0.0018686
0.00188924
0.0019132
0.00194002
0.00196872
0.00199779
0.00202621
0.0020465
0.00206673
0.00207652
0.00206887
0.0020493
0.0020142
0.00196292
0.00189609
0.00181552
0.0017242
0.00162637
0.00152937
0.00143885
0.00135453
0.00127667
0.00120578
0.00115124
0.00106301
0.00092939
0.000804486
0.000508656
0.000471207
0.000538663
0.000639534
0.000797764
0.00096962
0.00107889
0.00120872
0.00135172
0.00150844
0.00168142
0.0018778
0.00208618
0.00228856
0.00248101
0.00265715
0.00281404
0.00295296
0.00307495
0.00318135
0.00327354
0.0033527
0.00341999
0.00347713
0.00352808
0.00356988
0.00360364
0.00363026
0.00365011
0.00366422
0.0036735
0.00367873
0.00368054
0.00367945
0.00367595
0.00367035
0.00366298
0.00365416
0.00364418
0.00363325
0.00362148
0.00360884
0.00359442
0.00352817
0.00345021
0.00337907
0.00331431
0.00325522
0.00320079
0.00314978
0.00310103
0.00305321
0.00300615
0.00295944
0.00291193
0.00286279
0.00281154
0.00275716
0.0026986
0.00263507
0.002566
0.00248989
0.00240569
0.00231273
0.00221012
0.00209599
0.00197109
0.00183417
0.00168679
0.00152626
0.0013576
0.00117992
0.00101127
0.000860951
0.000736303
0.000637702
0.000562934
0.000507474
0.000466383
0.000435708
0.000414074
0.00039722
0.00038658
0.000379885
0.000378945
0.000378445
0.000382113
0.000387233
0.000395507
0.000404271
0.00041339
0.000427948
0.000445582
0.000464978
0.000485529
0.000507716
0.000532288
0.000559573
0.000590274
0.0006246
0.000662442
0.000703408
0.00074625
0.000789147
0.000829652
0.000865316
0.000896981
0.000915808
3.46329e-06
7.66276e-05
0.000251384
0.000461012
0.000667452
0.000855645
0.00102032
0.00116047
0.0012772
0.0013725