/*--------------------------------*- C++ -*----------------------------------*\
| =========                 |                                                 |
| \\      /  F ield         | OpenFOAM: The Open Source CFD Toolbox           |
|  \\    /   O peration     | Version:  2112                                  |
|   \\  /    A nd           | Website:  www.openfoam.com                      |
|    \\/     M anipulation  |                                                 |
\*---------------------------------------------------------------------------*/
FoamFile
{
    version     2.0;
    format      ascii;
    arch        "LSB;label=32;scalar=64";
    class       volScalarField;
    location    "100";
    object      omega;
}
// * * * * * * * * * * * * * * * * * * * * * * * * * * * * * * * * * * * * * //

dimensions      [0 0 -1 0 0 0 0];

internalField   nonuniform List<scalar> 
12225
(
37461.3
40179.2
41816.6
42641.4
42948.2
42920
42791.9
42562.7
42291.8
42027.7
41780.9
41551.2
41352.9
41162.9
41021.7
40863.8
40788.4
40656
828.373
6207.13
9229.04
11202.3
12558.8
13460.1
14067.9
14479.1
14734.6
14952.8
15135.6
15358.7
15535.5
15745.4
15877.2
16045.2
16069.5
16175.7
595.524
1141.75
1649.38
2294.12
2755.62
3185.85
3487.11
3801.43
4012.54
4320.04
4533.81
4830.14
5018.4
5286.02
5433.76
5668.09
5763.67
5961.64
486.749
589.014
699.48
856.318
996.7
1148.9
1257.79
1389.61
1476.93
1599.69
1679.28
1793.68
1861.68
1965.21
2019.58
2110.65
2149.5
2233.03
440.018
480.909
507.165
549.464
595.008
652.869
695.815
751
789.061
839.749
873.225
920.079
948.841
991.848
1015.49
1054.42
1072.2
1110.17
439.627
446.535
452.809
465.463
478.349
499.946
516.868
540.589
557.938
581.116
597.214
619.204
633.476
654.174
666.224
685.591
694.898
714.274
438.647
438.822
439.808
441.355
443.485
449.136
454.624
463.764
470.708
480.795
488.07
498.348
505.291
515.467
521.639
531.564
536.524
546.693
438.864
436.998
435.549
434.271
433.837
433.959
434.936
436.601
438.375
441.709
444.171
448.18
450.923
455.323
458.044
462.631
465.016
469.942
438.968
436.813
434.778
432.941
431.252
429.987
428.875
428.288
427.87
427.932
428.131
428.672
429.196
430.296
431.022
432.469
433.274
435.079
438.986
436.807
434.677
432.742
430.832
429.162
427.536
426.176
424.88
423.866
422.893
422.222
421.527
421.164
420.741
420.601
420.355
420.495
438.992
436.797
434.668
432.7
430.78
429.017
427.297
425.737
424.216
422.864
421.537
420.396
419.258
418.321
417.356
416.615
415.781
415.21
438.996
436.788
434.667
432.682
430.769
428.982
427.256
425.649
424.093
422.655
421.256
419.977
418.726
417.6
416.487
415.504
414.512
413.651
438.999
436.781
434.665
432.669
430.761
428.962
427.239
425.615
424.057
422.59
421.18
419.856
418.58
417.387
416.234
415.159
414.118
413.147
439
436.777
434.662
432.66
430.753
428.946
427.224
425.592
424.034
422.556
421.144
419.805
418.524
417.31
416.147
415.044
413.987
412.984
439.001
436.774
434.659
432.653
430.745
428.934
427.21
425.573
424.013
422.53
421.116
419.771
418.487
417.266
416.099
414.989
413.926
412.914
439
436.773
434.657
432.648
430.739
428.925
427.199
425.558
423.995
422.509
421.092
419.743
418.456
417.231
416.061
414.946
413.88
412.864
439.001
436.771
434.655
432.644
430.734
428.917
427.19
425.545
423.981
422.49
421.071
419.718
418.429
417.199
416.026
414.907
413.838
412.819
439
436.768
434.651
432.636
430.725
428.905
427.176
425.528
423.962
422.468
421.047
419.69
418.398
417.164
415.988
414.865
413.793
412.77
439.001
436.77
434.654
432.639
430.73
428.908
427.18
425.53
423.964
422.467
421.045
419.685
418.392
417.155
415.977
414.85
413.777
412.75
439.003
436.769
434.657
432.641
430.734
428.911
427.185
425.533
423.968
422.469
421.047
419.685
418.391
417.152
415.973
414.845
413.77
412.742
439
436.774
434.656
432.648
430.734
428.919
427.187
425.542
423.971
422.478
421.051
419.694
418.397
417.161
415.981
414.855
413.781
412.755
439.003
436.773
434.661
432.65
430.743
428.924
427.2
425.553
423.993
422.501
421.09
419.737
418.46
417.234
416.08
414.97
413.928
412.924
439.007
436.77
434.668
432.654
430.768
428.959
427.278
425.663
424.172
422.746
421.444
420.197
419.068
417.98
417.012
416.063
415.245
414.415
439
436.747
434.668
432.717
431.015
429.459
428.166
426.946
425.988
425.135
424.553
424.056
423.768
423.542
423.466
423.487
423.605
423.637
438.763
436.718
435.015
433.898
433.984
434.524
435.713
437.018
438.837
440.709
443.424
445.857
448.967
451.582
454.867
457.472
460.84
463.302
436.805
437.589
443.17
448.265
458.063
467.427
478.763
489.277
501.641
512.696
525.306
536.069
548.24
558.184
569.65
578.576
589.326
597.181
422.837
453.253
488.112
534.974
583.351
627.51
674.029
714.852
758.003
794.288
833.199
864.524
899.084
925.605
956.237
978.587
1006.36
1025.94
377.504
652.036
865.653
1079.63
1277.68
1454.19
1622.17
1763.08
1898.71
2006.3
2114.49
2195.76
2282.82
2344.22
2416.49
2464.58
2530.96
2578.2
757.038
2795.53
4144.42
5162.5
5989.73
6664.45
7200.72
7619.42
7950
8192.88
8399.67
8545.09
8685.71
8782.17
8902.37
8982.57
9103.98
9178.79
23118.1
24540.8
25584.6
26331.3
26821.7
27140.9
27309.9
27407.5
27412.2
27394.7
27352.3
27284.3
27207.2
27124.7
27041.6
26959.4
26878.7
26800.6
11469.9
2566.03
2623.07
2691.37
2761.35
2830.96
2885.43
2924.5
2941.11
2951.07
2973.27
3026.72
3029.58
3056.03
3121.64
3153.7
3209.04
3274.15
3358.95
3450.65
3566.38
3690.16
3835.56
3989.14
4159.64
4336.39
4517.54
4696.43
4871.77
5041.43
5205.79
5361.6
5510.64
5653.17
5793.29
5928.01
6060.31
6188.53
6313.9
6433.97
6550.28
6660.81
6764.25
6862.64
6957.45
7038.65
7102.39
7176.93
7240.65
7258.23
7250.44
7244
7242.34
7241.12
7170.21
7033.88
6845.76
6611.1
6337.36
6023.81
5692.3
5360.21
5073.63
4813.17
4560.29
4307.14
4058.91
3814.79
3575.59
3357.64
3169.56
2933.01
2827.62
2821.73
2887.9
3009.4
3230.55
3467.49
3621.58
3600.17
3433.3
3362
3525.36
3889.28
4556
5592.91
6135.41
6785.02
6901.22
7334.36
7374.26
7649.43
7677.08
7849.97
7884.05
7964.1
8020.11
8065.22
8084.4
8088.33
8034
8049.68
8034.72
8015.9
7999.44
7965.02
7926.5
7890.61
7846.38
7804.98
7774.04
7741.38
7703.58
7671.75
7602.15
7549.44
7484.51
7412.33
7350.45
7275.98
7218.2
7159.35
7086.78
7038.91
6981.47
6930.62
6877.48
6827.51
6777.95
6730.81
6685.75
6641.48
6599.09
6558.08
6519.8
6483.49
6449.85
6419.12
6392.14
6368.45
6343.77
6328.74
6306.6
6297.34
6277.59
6264.38
6247.53
6231.02
6212.29
6199.2
6210.75
6200.13
6199.01
6207.71
6189.61
6199.37
6202.81
6210.05
6219.75
6235.57
6253.79
6273.19
6302.75
6330.03
6346.03
6411.84
6468.62
6528.64
6577.22
6619.09
6669.96
6690.65
6709.17
6717.08
6744.89
6706.4
6698.95
6659.57
6619.16
6481.38
11481.8
2023.73
1577
1560.6
1544.69
1529.4
1515.73
1514.83
1487.85
1501.24
1518.39
1545.35
1574.56
1609.99
1652.9
1694.37
1739.23
1785.38
1831.98
1876.26
1920.75
1961.72
2004.15
2046.94
2079.13
2073.75
2039.49
2063.63
2027.28
2040.4
2001.91
2020.78
2008.4
1975.38
1994.11
2007.95
2031.28
2052.18
2073.2
2093.3
2112.82
2131.22
2148.76
2165.03
2180.19
2191.96
2198.96
2211.4
2218.33
2216.2
2200.28
2173.99
2151.52
2136.63
2123.07
2107.92
2089.98
2052.41
1989.6
1921.78
1864.39
1832.13
1891.86
2047.01
2303.66
2585.57
2566.36
2549.84
2542.31
2638.98
2627.27
2536.12
2401.73
2264.03
2080.37
1867.79
1755.86
1783.53
1849.92
1861.27
1793.06
1916.49
2952.94
4761.74
5538.38
5477.82
5320.46
4716.38
4303.03
3968.52
3784.66
3500.92
3418.43
3158.66
3096.8
3109.29
2862.01
2830.51
2744.61
2728.17
2569.95
2575.53
2515.24
2485.9
2458.19
2435.56
2433.76
2393.54
2387.5
2367.81
2371.29
2334.81
2333.1
2321.46
2303.38
2290.06
2272.85
2254.11
2237.13
2217.15
2202.29
2185.36
2173.08
2165.29
2154.91
2147.29
2137.09
2129.05
2117.04
2108.14
2100.04
2091.59
2082.37
2073.39
2067.52
2067.13
2074.52
2068.68
2063.88
2053.6
2054.21
2057.06
2061.81
2075.78
2062.4
2065.04
2067.24
2071.95
2088.68
2081.28
2089.95
2110.66
2113.93
2120.6
2120.19
2144.25
2149.91
2161.45
2172.83
2188.06
2202.77
2222.73
2238.11
2249.75
2249.12
2248.91
2252.94
2249.5
2252.78
2262.24
2271.79
2277.31
2281.2
2283.08
2288.41
2289.61
2296.2
2306.23
2320.41
2480.18
11506.5
1837.16
1130.29
1049.43
1025.98
1013.52
1011.98
1027.15
1044.56
1075.41
1113.41
1155.28
1196.72
1234.09
1264.61
1289.58
1314.76
1337.07
1354.72
1357.4
1354.72
1358.94
1361.55
1356.05
1349.93
1340.39
1330.31
1324.34
1319.26
1321.46
1323.83
1326.68
1328.07
1330.54
1339.99
1350.78
1364.07
1378.09
1393.3
1409.41
1426.37
1443.82
1461.59
1479.24
1496.45
1512.88
1528.39
1542.51
1554.53
1562.58
1565.63
1564.15
1560.13
1554.14
1545.29
1532.9
1516.91
1495.63
1468.13
1434.61
1391.18
1345.17
1317.77
1327.58
1402.5
1560.85
1742.32
1941.37
2052.84
2084.39
2078.85
2095.61
1996.53
1833.31
1652.89
1511.38
1512.61
1692.28
1926.52
2184.44
2820.38
4038.7
4405.3
4149.78
3698.37
3341.78
2825.43
2575.15
2368.54
2241.3
2138.4
2055.35
1995.54
1941.4
1906.58
1878.92
1842.95
1821.27
1799.45
1784.26
1764.5
1758.04
1744.78
1737.75
1728.9
1717.57
1711.96
1706.4
1701.9
1699.94
1698.14
1696.5
1686.77
1684.28
1684.46
1692.89
1680.21
1671.96
1662.43
1650.57
1635.92
1618.3
1609.56
1615.51
1608.82
1598.87
1600.46
1609.03
1600.66
1595.09
1588.32
1578.28
1568.12
1555.62
1540.22
1528.89
1528.09
1530.64
1521.15
1524.02
1516.43
1515.92
1517.34
1529.7
1524.41
1533.49
1531.89
1529.58
1554.7
1557.37
1564.31
1576.23
1584.84
1594.17
1602.61
1614.49
1623
1632.63
1642.89
1650.23
1654.05
1654.68
1649.3
1637.87
1621.89
1606.33
1594.13
1580.49
1569.04
1556.05
1547.12
1538.16
1529.49
1522.77
1518.53
1517.17
1515.75
1520.17
1528.45
1589.44
11534.7
1848.81
961.996
814.194
768.03
747.499
743.4
751.857
767.799
792.692
825.262
863.672
905.381
947.01
985.182
1017.34
1042.33
1058.99
1067.93
1069.71
1066.43
1063.64
1062.19
1058.76
1059.94
1059.09
1060.63
1063.4
1069.27
1077.26
1086.12
1096.85
1108.86
1122.37
1138.11
1155.48
1174.66
1195.1
1216.75
1239.33
1262.64
1286.33
1310.12
1333.59
1356.36
1378.08
1398.37
1416.8
1433.34
1447.95
1459.02
1466.21
1470.09
1468.64
1462.18
1450.86
1434.94
1414.18
1388.39
1357.41
1320.78
1279.21
1232.03
1187.37
1163.17
1187.12
1274.04
1428.67
1584.24
1686.24
1690.8
1703.88
1691.77
1602.76
1496.21
1494.43
1730.36
2051.45
2353.28
3531.71
3985.47
3632.32
3051.33
2633.91
2353.12
2154.58
1980.84
1871.13
1783.7
1726.56
1679.06
1645
1616.92
1595.51
1577.94
1563.07
1551.27
1541.37
1532.13
1525.59
1521.51
1518.53
1516.93
1516.48
1521.43
1517.38
1513.41
1518.42
1509.67
1510.68
1517.33
1508.74
1514.99
1510.93
1505.14
1510.06
1495.15
1496.27
1488.82
1487.07
1492.66
1478.37
1470.31
1472.12
1480.44
1474.86
1468.22
1457.81
1456.26
1460.51
1466.95
1458.81
1451.83
1444.82
1433.05
1422.68
1421.92
1420.12
1418.28
1417.2
1421.84
1413.82
1413.3
1415.33
1417.53
1421.16
1426.31
1432.79
1445.34
1462.51
1463.64
1484.55
1490.56
1506.15
1514.97
1524.2
1531.15
1535.69
1536.45
1532.29
1522.49
1507.16
1486.87
1462.75
1437.48
1412.09
1389.41
1365.22
1344.97
1320.42
1303.26
1285.98
1270.54
1257.95
1255.57
1252.44
1245.92
1249.69
1249.48
1279.34
11558.9
1940.57
947.618
730.535
654.867
624.18
611.647
609.972
616.189
629.913
649.39
674.262
703.578
735.727
768.552
799.629
826.877
848.841
865.34
877.002
885.367
892.867
899.877
907.885
916.912
927.326
939.463
953.151
968.538
985.349
1003.26
1022.18
1042.51
1063.77
1086.05
1109.25
1133.44
1158.6
1184.47
1210.79
1237.37
1263.9
1290.14
1315.71
1340.31
1363.57
1385.13
1404.64
1422.13
1437.35
1449.89
1458.72
1464.32
1468.07
1466.28
1458.66
1445.15
1426
1401.8
1372.34
1336.96
1295.41
1246.06
1192.81
1136.68
1101.17
1093.66
1151.5
1258.15
1385.45
1407.46
1445.88
1418.37
1429.33
1519.83
1723.66
2075.11
2497.14
3588.38
3696.76
3064.32
2526.47
2177.4
1965.1
1826.21
1725.46
1645.25
1588.38
1544.55
1513.4
1488.85
1471.49
1457.95
1448
1438.4
1432.39
1429.57
1430.09
1425.83
1421.88
1426.97
1426.86
1428.72
1431.05
1432.47
1430.72
1437.54
1433.34
1440.42
1441.22
1442.35
1438.3
1440.35
1446.94
1442.53
1446.66
1438.85
1437.9
1436.52
1436.01
1435.74
1434.84
1428.43
1428.08
1428.14
1430.81
1425.81
1419.3
1417.17
1416.16
1418.96
1411.13
1407.74
1404.9
1401.4
1401.77
1408.4
1402.53
1408.04
1401.46
1409.16
1406.18
1402.05
1403.74
1412.7
1411.19
1423.62
1425.4
1446.29
1457.87
1467.42
1481.37
1490.62
1503.76
1512.44
1519.19
1520.99
1516.74
1505.69
1486.39
1460.68
1431.06
1399.27
1366.55
1334.95
1303.87
1275.99
1246.78
1222.86
1193.22
1173.43
1151.05
1136.39
1122.33
1122.58
1118.81
1116.6
1109.86
1104.51
1124.16
11587.3
2077.13
991.651
731.646
635.752
589.711
566.686
556.126
554.129
557.791
566.856
580.447
598.21
619.487
643.255
668.241
693.108
716.688
738.363
758.047
776.242
793.753
811.256
829.437
848.729
869.105
890.403
913.609
937.813
962.594
987.79
1013.22
1038.75
1064.67
1091.15
1118.09
1145.44
1173.11
1201.03
1229.07
1257.11
1284.92
1312.28
1338.83
1364.28
1388.24
1410.41
1430.43
1447.94
1462.68
1474.89
1484.64
1490.39
1496.22
1497.8
1494.1
1484.77
1469.45
1448.3
1421.57
1388.33
1347.65
1299.22
1243.5
1178.94
1113.79
1062.28
1043.72
1079.38
1163.84
1238.76
1296.84
1393.71
1522.89
1724.88
2021.14
2398.06
3191.91
3423.97
2782.55
2256.24
1949.33
1766.59
1655.41
1579.45
1521.57
1476.4
1442.71
1416.93
1398.33
1384.29
1376.1
1370.88
1366.81
1363.93
1362.91
1363.51
1364.92
1370.38
1371.18
1373.75
1373.05
1378.22
1388.48
1391.44
1394.87
1398.37
1397.86
1402.16
1410.3
1410.36
1413.65
1416.82
1421.43
1422.87
1424.45
1424.22
1424.49
1424.4
1424.67
1426.13
1423.47
1419.43
1420.67
1418.1
1417.18
1415.9
1412
1408.76
1404.66
1402.62
1400.02
1397.64
1396.36
1392.08
1391.77
1394.14
1391.34
1393.61
1391.1
1392.33
1394.35
1392.85
1396.36
1400.88
1404.61
1413.02
1421.2
1434.59
1447.21
1459.85
1471.22
1480.58
1485.86
1485.65
1478.53
1462.22
1437.44
1406.42
1371.39
1334.48
1297.62
1261.62
1227.32
1195.57
1165.78
1138.72
1113.38
1088.65
1067.51
1043.76
1021.19
1030.45
1025.02
1010.37
999.802
1004.48
1004.53
995.337
1005.87
11632.2
2212.22
1070.08
768.73
650.925
593.855
563.07
546.031
537.01
534.166
536.107
542.409
552.748
567.204
584.4
604.053
625.566
648.286
671.703
695.486
719.546
743.88
768.436
794.869
822.394
850.739
879.739
908.717
937.993
967.558
997.232
1026.92
1056.46
1085.76
1114.87
1143.89
1172.94
1202.04
1231.24
1260.49
1289.74
1318.81
1347.49
1375.45
1402.39
1427.85
1451.44
1472.67
1491.12
1506.52
1518.79
1527.9
1532.92
1537.28
1539.61
1536.83
1530.12
1518.68
1501.58
1478.72
1448.84
1410.47
1362.91
1306.03
1240.61
1171.31
1094.23
1032.87
1008.65
1027.04
1071.35
1167.58
1362.47
1583.47
1846.33
2261.9
2805.06
3128.05
2690.95
2136.84
1824
1654.25
1552.44
1486.91
1440.03
1403.11
1374.49
1352.89
1337.08
1327.23
1322.73
1319.64
1318.81
1319.41
1321.06
1323.89
1327.15
1331.19
1336.51
1341.15
1346.54
1351.94
1358.5
1365.64
1371.3
1377.07
1382.28
1384.66
1394.02
1397.67
1406.26
1410.02
1416.25
1420.57
1423.89
1425.09
1426.58
1427.41
1428.13
1428.99
1429.02
1427.82
1426.1
1425.01
1422.59
1420.2
1417.31
1413.54
1409.77
1405.82
1402.15
1398.26
1394.69
1390.92
1386.36
1382.64
1380.01
1376.04
1373.74
1370.93
1368.62
1367.81
1366.4
1366.47
1368.77
1372.71
1379.6
1388.49
1398.88
1409.44
1418.47
1421.79
1420.38
1409.11
1388.02
1357.68
1320.79
1280.67
1239.79
1199.9
1161.84
1126.24
1092.99
1062.58
1034.92
1009.7
987.256
966.915
946.759
931.691
906.808
916.973
916.345
896.948
895.408
894.534
894.295
882.888
878.067
887.951
11694.2
2336.21
1148.97
818.752
683.103
614.41
575.568
552.574
539.362
532.989
531.871
534.771
541.428
551.247
564.479
580.775
599.833
621.335
644.987
670.506
697.687
726.364
756.461
787.186
818.679
850.968
883.898
917.113
950.251
982.993
1015.3
1047.09
1078.37
1109.17
1139.64
1169.93
1200.22
1230.58
1261.14
1291.88
1322.82
1353.8
1384.65
1415.04
1444.61
1472.88
1499.33
1523.4
1544.57
1562.36
1576.05
1586.49
1591.7
1597.84
1598.78
1595.1
1587.58
1576.54
1561.47
1541.31
1514.87
1479.64
1434.21
1377.22
1309.86
1234.67
1156.22
1073.34
1002.94
973.082
991.292
1134.33
1378.71
1681.57
2020.12
2483.92
2830.61
2608.22
2138.33
1772.49
1587.62
1487.03
1423.92
1381.07
1349.35
1323.95
1305.14
1290.65
1281.68
1278.47
1276.1
1277.14
1279.65
1283.39
1287.95
1293.31
1299.22
1305.85
1313.13
1320.58
1328.4
1336.53
1345.12
1353.92
1362.39
1370.92
1378.96
1386.57
1395.15
1402.55
1410.36
1417.25
1423.89
1429.6
1434.53
1437.57
1441.8
1443.69
1444.68
1444.84
1445.02
1444.4
1443.07
1441.19
1438.41
1435.02
1431.04
1426.45
1421.52
1416.29
1410.9
1405.3
1399.59
1393.88
1387.81
1381.93
1376.31
1369.8
1363.47
1356.89
1350.71
1345.49
1340.96
1338.08
1337.52
1339.16
1343.53
1350.22
1354.96
1357.17
1353.03
1338.43
1313.83
1279.5
1240.14
1198.97
1157.84
1117.62
1079.22
1043
1009.22
978.066
949.009
922.818
898.81
877.081
857.853
840.017
825.398
807.775
808.841
805.777
798.603
786.364
768.218
777.002
778.67
767.535
778.942
777.989
11770.3
2445.82
1220.09
866.599
716.488
638.527
593.519
566.312
550.067
541.342
538.207
539.251
544.14
552.592
564.398
579.377
597.369
618.195
641.663
667.541
695.596
725.56
757.213
790.178
824.18
858.761
893.659
928.531
963.098
997.12
1030.54
1063.31
1095.54
1127.34
1158.93
1190.48
1222.22
1254.27
1286.77
1319.71
1353.14
1386.94
1420.95
1454.8
1488.12
1520.35
1550.91
1579.13
1604.37
1626
1643.1
1656.24
1663.27
1668.17
1672.08
1669.22
1661.67
1649.83
1633.74
1613.02
1586.85
1553.94
1512.03
1455.83
1387.04
1308.41
1224.47
1138.26
1038.92
983.319
962.203
1063.98
1369.99
1742.61
2120.28
2504.78
2508.29
2148.87
1791.89
1563.45
1447.38
1381.31
1337.96
1307.22
1283.99
1265.79
1253.6
1244.69
1241.84
1240.67
1242.8
1247
1252.42
1258.85
1265.96
1273.7
1281.98
1290.89
1300.36
1310.06
1320.12
1330.65
1341.47
1352.46
1363.35
1374.34
1384.95
1395.31
1405.57
1415.28
1424.64
1433.46
1441.65
1449
1455.43
1460.79
1465.97
1468.9
1470.15
1470.58
1470.84
1470.09
1468.35
1465.67
1462.06
1457.64
1452.5
1446.71
1440.43
1433.71
1426.7
1419.42
1411.92
1404.24
1396.3
1388.19
1379.79
1371.24
1362.56
1353.65
1344.38
1335.79
1328.15
1322.21
1318.31
1316.45
1315.17
1311.52
1301.94
1284.46
1257.6
1221.79
1180.83
1138.67
1097.28
1057.46
1019.61
983.624
950.015
918.585
889.578
862.896
838.046
815.842
795.303
776.869
760.452
745.29
731.966
719.394
709.061
695.74
696.977
696.292
683.117
685.683
678.742
685.887
688.74
686.735
11857.7
2541.36
1281.18
908.099
746.362
661.275
611.796
581.79
563.806
554.033
550.255
550.743
555.091
563.043
574.274
588.61
605.938
626.148
649.119
674.672
702.592
732.598
764.384
797.568
831.774
866.587
901.676
936.709
971.458
1005.73
1039.51
1072.81
1105.8
1138.62
1171.54
1204.73
1238.45
1272.82
1307.99
1343.98
1380.81
1418.38
1456.54
1494.92
1533.09
1570.41
1606.19
1639.65
1669.99
1696.44
1718.35
1734.84
1746.23
1751.68
1756.65
1755.69
1749.16
1737.65
1721.29
1699.87
1672.95
1639.43
1596.93
1541.68
1471.3
1389.32
1301
1208.45
1111.81
1025.78
998.524
1086.85
1312.68
1684.08
2178.54
2340.53
2148.12
1827.08
1575.41
1429.25
1351.73
1304.69
1272.66
1249.77
1233.22
1220.49
1214.31
1209.65
1210.06
1213.38
1219.08
1226.48
1235.01
1244.43
1254.53
1265.17
1276.16
1287.65
1299.69
1311.38
1323.55
1336.17
1349.17
1362.35
1375.6
1388.78
1401.64
1414.16
1426.26
1437.78
1448.65
1458.76
1468.03
1476.35
1483.64
1489.97
1495.08
1498.49
1500.21
1500.77
1500.68
1499.4
1496.95
1493.35
1488.72
1483.17
1476.79
1469.72
1462.06
1453.91
1445.39
1436.57
1427.51
1418.22
1408.71
1398.95
1388.85
1378.4
1367.9
1356.53
1345.38
1334.36
1323.66
1313.39
1303.11
1291.42
1275.92
1254.09
1224.6
1187.92
1144.4
1099.53
1056.01
1015.09
976.601
940.801
907.492
876.374
847.68
821.145
796.909
774.603
753.996
735.599
718.49
703.241
689.393
676.479
664.926
653.847
643.983
634.892
624.499
625.027
618.811
615.191
617.764
619.508
620.859
620.441
11950.2
2622.4
1332.36
943.012
772.036
681.529
628.835
596.98
578.014
567.83
563.901
564.351
568.877
576.879
588.026
602.109
619.005
638.613
660.831
685.515
712.482
741.479
772.221
804.361
837.557
871.449
905.744
940.165
974.559
1008.66
1042.49
1076.15
1109.92
1143.99
1178.59
1213.89
1250.12
1287.43
1325.96
1365.75
1406.81
1449.04
1492.3
1536.23
1580.34
1623.91
1666.13
1705.99
1742.49
1774.67
1801.69
1822.92
1837.25
1846.81
1850.3
1852.53
1847.26
1836.72
1821.08
1799.98
1772.79
1738.32
1694.48
1636.33
1562.1
1475.97
1382.83
1286.06
1175.07
1105.01
1083.48
1154.57
1382.16
1817.3
2104.41
2088.43
1859.05
1608.72
1435.26
1336.36
1280.83
1245.57
1221.34
1204.29
1192.32
1185.71
1181.95
1182.09
1186.2
1193.1
1202.13
1212.69
1224.35
1236.91
1250.2
1263.88
1276.8
1290.28
1304.23
1318.53
1333.35
1348.5
1363.89
1379.32
1394.72
1409.88
1424.66
1438.89
1452.5
1465.32
1477.3
1488.32
1498.3
1507.21
1515.01
1521.69
1526.78
1529.67
1530.98
1531.46
1530.61
1528.46
1525.02
1520.28
1514.42
1507.56
1499.79
1491.26
1482.09
1472.42
1462.37
1452.06
1441.57
1430.94
1420.24
1409.32
1398.12
1386.52
1373.74
1361.04
1348
1333.33
1317.09
1298.66
1276.71
1249.69
1216.3
1176.13
1130.82
1081.53
1033.44
989.047
948.307
911.331
877.071
846.122
817.651
791.474
767.796
746.227
726.817
708.983
692.703
677.858
664.298
651.941
640.355
629.394
619.233
609.608
600.929
592.504
585.629
578.037
579.043
577.944
573.593
576.532
575.865
577.638
12039.4
2690.5
1375.2
972.497
794.17
699.458
644.357
611.204
591.64
581.317
577.451
578.115
582.882
591.048
602.207
616.095
632.552
651.46
672.724
696.227
721.833
749.346
778.51
809.039
840.699
873.222
906.422
939.974
973.954
1007.68
1041.4
1075.11
1109.89
1145.38
1181.9
1219.6
1258.67
1299.26
1341.52
1385.54
1431.34
1478.84
1527.94
1578.32
1629.47
1680.61
1730.71
1778.51
1822.66
1861.8
1894.83
1920.96
1939.33
1951.16
1956.31
1959.04
1954.24
1944.19
1929.24
1909.06
1882.79
1848.48
1804.7
1744.96
1669.98
1581.01
1480.78
1378.05
1266.72
1203.86
1192.78
1259.52
1465.37
1837.11
1956.9
1853.61
1646.98
1461.39
1339.35
1268.3
1226.2
1198.79
1180.16
1167.5
1160.35
1156.46
1156.45
1160.39
1167.83
1177.93
1190.01
1203.55
1218.2
1233.8
1249.75
1264.66
1279.91
1296.11
1312.84
1329.91
1347.25
1364.76
1382.34
1399.87
1417.24
1434.26
1450.71
1466.45
1481.34
1495.2
1507.96
1519.57
1529.94
1538.96
1546.56
1552.67
1556.77
1558.86
1559.5
1558.89
1556.73
1553.02
1547.85
1541.3
1533.69
1525.13
1515.71
1505.57
1494.86
1483.75
1472.39
1460.9
1449.38
1437.87
1426.31
1414.71
1402.91
1390.51
1377.39
1362.18
1344.61
1323.69
1298.31
1267.52
1230.05
1185.93
1136.51
1083.58
1029.27
978.892
933.566
893.53
857.629
825.6
796.299
770.664
747.135
726.373
708.063
691.805
677.283
664.49
652.791
642.273
632.37
623.184
614.145
605.15
596.584
588.162
580.112
572.565
565.985
560.347
556.191
552.82
553.202
552.746
552.229
551.859
12117.8
2748.49
1411.91
998.029
813.644
715.492
658.439
624.24
604.208
593.785
589.994
590.862
595.826
604.102
615.217
628.85
644.805
662.942
683.167
705.391
729.533
755.481
783.093
812.104
842.229
873.394
905.701
938.182
970.925
1003.99
1037.75
1072.67
1107.82
1144.62
1182.97
1222.95
1264.72
1308.46
1354.33
1402.49
1453.06
1506.03
1561.41
1618.98
1678.29
1738.5
1798.4
1856.29
1910.29
1958.42
1999.03
2030.97
2053.71
2066.23
2073.36
2075.49
2069.95
2059.16
2043.8
2023.98
1998.86
1966.36
1923.61
1866.5
1792.54
1701.06
1595.03
1484.75
1373.02
1313.2
1308.17
1400.13
1593.15
1775.66
1793.66
1665.88
1497.15
1360.19
1270.83
1216.81
1183.37
1161.42
1146.95
1138.12
1133.74
1132.8
1135.95
1143.01
1153.34
1166.18
1180.92
1197.08
1214.4
1232.84
1249.64
1266.99
1285.3
1304.21
1323.48
1343.02
1362.69
1382.46
1402.16
1421.74
1441.03
1459.84
1477.86
1494.93
1510.84
1525.5
1538.66
1550.31
1560.21
1568.32
1574.38
1578.1
1579.8
1579.95
1578.59
1575.71
1571.36
1565.62
1558.62
1550.59
1541.74
1532.04
1521.59
1510.52
1499
1487.16
1475.17
1463.13
1451.13
1439.21
1427.29
1415.22
1402.34
1388.16
1371.93
1352.3
1328.02
1297.33
1258.79
1212.54
1158.96
1100.96
1042.07
984.087
931.951
886.768
847.373
813.334
783.25
756.726
733.163
713.046
695.361
681.162
668.014
657.264
647.802
640.072
632.064
624.407
616.849
609.671
602.447
595.025
587.846
580.368
573.049
566.26
560.118
555.008
550.476
546.96
544.058
541.49
538.455
537.517
12178.8
2797.42
1443.81
1020.65
831.17
730.05
671.264
636.1
615.593
604.998
601.21
602.215
607.295
615.605
626.612
639.952
655.392
672.776
692.016
713.046
735.831
760.338
786.529
814.272
843.333
873.352
904.145
935.465
967.45
1000.29
1034.25
1069.69
1105.26
1142.92
1182.59
1224.28
1268.12
1314.32
1363.11
1414.76
1469.59
1527.76
1589.43
1654.66
1723.2
1794.23
1866.31
1937.22
2004.22
2064.35
2115.07
2154.64
2181.77
2196.89
2204.13
2203.54
2195.27
2181.79
2164.38
2143.5
2118.77
2088.63
2050.67
2000.12
1931.11
1840.22
1729.56
1610.55
1493.97
1432.08
1417.01
1474.78
1618.4
1691.36
1650.17
1526.36
1392.51
1289.07
1220.61
1177.47
1149.88
1131.84
1120.4
1114
1111.79
1113.27
1119.03
1128.57
1141.19
1156.24
1173.1
1191.32
1210.65
1230.91
1249.83
1269.93
1290.76
1312.13
1333.86
1355.8
1377.85
1399.87
1421.74
1443.34
1464.5
1484.94
1504.39
1522.49
1539.01
1553.63
1566.09
1575.89
1583.18
1588.04
1590.72
1591.1
1590.66
1588.83
1585.54
1580.84
1574.83
1567.62
1559.34
1549.98
1539.91
1529.14
1517.78
1505.92
1493.71
1481.28
1468.77
1456.28
1443.8
1431.31
1418.64
1405.31
1390.66
1373.51
1352.68
1325.85
1291.61
1248.19
1195.1
1134.11
1068.97
1004.65
943.548
890.52
845.806
808.024
775.755
748.212
724.716
703.978
686.971
673.852
662.705
652.34
645.43
639.426
633.415
628.082
622.615
617.398
610.966
604.978
598.858
593.099
586.971
581.713
576.357
570.843
565.511
560.503
555.409
550.808
545.638
541.302
535.961
532.053
12219
2838.92
1472.28
1041.37
847.405
743.578
683.153
647.023
625.994
615.138
611.277
612.371
617.517
625.828
636.722
649.795
664.791
681.543
699.966
720.011
741.682
764.999
790.011
816.708
844.995
874.555
905.021
935.676
967.01
999.389
1032.88
1067.45
1103.05
1140.97
1181.15
1223.57
1268.4
1315.89
1366.42
1420.39
1478.39
1540.95
1608.57
1681.77
1760.54
1844.3
1931.51
2019.27
2103.43
2179.59
2243.77
2293.25
2326.02
2344.04
2350.32
2345.57
2332.82
2314.7
2293.2
2269.43
2243.58
2214.64
2181.06
2138.93
2080.24
1997.9
1890.03
1766.61
1640.36
1559.29
1533.55
1547.21
1604.27
1610.44
1537.1
1426.63
1322.97
1241.63
1185.57
1148.73
1124.6
1108.94
1099.35
1094.56
1093.95
1097.14
1104.68
1115.9
1130.14
1146.74
1165.14
1184.89
1205.73
1227.46
1249.17
1271.35
1294.46
1318.23
1342.45
1366.85
1391.29
1415.54
1439.5
1462.97
1485.75
1507.43
1527.7
1545.9
1561.43
1573.9
1583.38
1589.49
1593.9
1596
1596.01
1594
1590.57
1585.74
1579.65
1572.46
1564.29
1555.28
1545.52
1535.15
1524.21
1512.78
1500.89
1488.64
1476.1
1463.39
1450.6
1437.8
1424.9
1411.76
1397.99
1382.67
1364.97
1342.71
1314.76
1278.42
1232.25
1175.2
1109.12
1038.61
969.975
906.651
852.898
809.252
773.567
743.5
718.814
698.224
681.88
667.489
656.462
649.045
642.034
638.676
635.231
631.199
627.779
624.196
619.859
614.798
610.76
609.687
607.084
605.796
605.273
602.421
597.534
592.278
586.791
581.029
574.278
567.134
558.723
550.413
541.533
533.067
12232
2868.13
1496.24
1060.48
862.973
756.862
694.968
657.932
636.388
625.247
621.302
622.507
627.749
636.102
646.945
659.84
674.515
690.794
708.6
727.9
748.737
771.213
795.397
821.318
848.893
877.79
907.641
938.113
969.184
1000.97
1033.8
1067.92
1103.52
1141.05
1180.57
1222.25
1266.41
1313.51
1364.19
1419.09
1479.07
1545.21
1618.57
1700.28
1791.13
1890.94
1997.82
2107.37
2213.93
2311.09
2392.81
2454.6
2494.53
2513.72
2517.36
2507.33
2487.49
2461.85
2433.45
2404.21
2374.92
2345.25
2313.73
2278.62
2233.08
2167.56
2074.56
1956.42
1826.89
1705.24
1634.63
1611.36
1580.57
1534.96
1485.75
1387.87
1274.72
1205.83
1158.83
1127.06
1105.7
1091.54
1082.99
1079.05
1079.2
1083.25
1091.67
1103.8
1118.97
1136.65
1156.27
1177.41
1199.92
1224.6
1247.19
1271.12
1296.34
1322.53
1349.29
1376.24
1403.05
1429.45
1455.13
1479.9
1503.42
1525.28
1544.7
1561.02
1573.54
1583.23
1589.99
1593.08
1593.59
1591.68
1588
1582.66
1575.89
1567.97
1559.13
1549.57
1539.41
1528.78
1517.77
1506.49
1494.92
1483.05
1470.88
1458.43
1445.75
1432.9
1419.9
1406.73
1393.1
1378.67
1362.84
1343.82
1321.16
1292.24
1255.13
1206.93
1146.31
1075.88
1002.09
931.319
868.309
816.5
774.768
742.302
715.008
692.888
676.657
664.257
652.903
645.008
639.467
634.257
632.839
631.59
628.809
629.363
628.944
628.9
627.045
627.013
627.401
633.298
631.141
641.419
646.604
641.725
635.289
629.588
623.626
616.352
607.007
595.92
583.159
569.32
555.905
541.584
12226.3
2886.76
1516.62
1078.62
879.025
771.233
708.227
670.565
648.776
637.61
633.862
635.48
641.109
649.824
660.963
674.054
688.805
705.048
722.699
741.641
761.922
783.709
807.297
832.83
860.212
889.13
919.174
949.99
981.424
1013.59
1046.73
1081.02
1116.57
1153.6
1192.39
1233.26
1276.61
1323.09
1373.56
1428.95
1490.62
1560.38
1640.14
1731.81
1836.77
1954.96
2083.82
2217.64
2348.36
2467.46
2566.74
2640.65
2684.72
2702.2
2701.43
2682.95
2652.69
2616.17
2577.62
2539.91
2504.44
2471.23
2439.24
2406.83
2370.82
2323.49
2254.93
2157.93
2035.25
1889.5
1752.29
1679.88
1625.99
1554.49
1471.57
1376.18
1280.65
1209.01
1157.69
1121.49
1096.05
1080.95
1071.82
1068.37
1068.45
1072.75
1081.47
1094.05
1110.01
1129.11
1150.03
1172.7
1196.78
1222.63
1246.7
1272.3
1299.86
1328.62
1357.92
1387.22
1415.97
1443.75
1470.08
1494.73
1517.35
1537.38
1554.08
1567.54
1576.68
1582.77
1584.9
1583.47
1579.75
1573.89
1566.21
1557.05
1546.78
1535.74
1524.24
1512.45
1500.51
1488.51
1476.51
1464.5
1452.47
1440.33
1428.03
1415.48
1402.66
1389.56
1376.02
1361.98
1346.73
1329.81
1310.67
1287.51
1258.56
1220.52
1169.81
1106.45
1034.69
961.224
892.551
832.264
783.363
744.899
714.456
691.829
670.611
658.231
648.776
641.484
636.286
631.955
629.671
628.612
626.761
627.558
628.406
627.569
631.663
634.021
634.772
638.894
643.8
653.68
662.618
675.184
687.509
688.726
686.157
681.449
674.696
664.98
652.166
636.197
618.532
598.662
580.201
559.113
12204.5
2951.12
1545.69
1099.24
896.471
787.186
723.62
686.018
664.726
654.369
651.687
654.449
661.262
671.209
683.584
697.902
713.768
730.898
749.031
768.142
788.581
810.672
834.761
861.089
889.479
919.471
950.612
982.608
1015.37
1048.99
1083.54
1118.84
1154.85
1191.8
1230.32
1271.04
1314.63
1361.92
1413.92
1471.99
1537.93
1614.03
1703.11
1807.73
1929.51
2067.78
2218.27
2372.93
2522.1
2654.92
2763.19
2844.51
2882.61
2896.1
2887.45
2858.13
2815.28
2765.72
2714.91
2666.61
2622.83
2583.98
2549.16
2516.49
2483.89
2447.61
2400.47
2332.54
2235.14
2093.85
1931.89
1775.7
1659.7
1573
1480.01
1355.28
1277.56
1212.47
1160.22
1122.54
1096.41
1078.68
1067.98
1064.54
1064.47
1068.5
1077.24
1090.09
1106.79
1127.71
1148.31
1172.85
1197.32
1222.44
1248.55
1276.77