/*--------------------------------*- C++ -*----------------------------------*\
| =========                 |                                                 |
| \\      /  F ield         | OpenFOAM: The Open Source CFD Toolbox           |
|  \\    /   O peration     | Version:  2112                                  |
|   \\  /    A nd           | Website:  www.openfoam.com                      |
|    \\/     M anipulation  |                                                 |
\*---------------------------------------------------------------------------*/
FoamFile
{
    version     2.0;
    format      ascii;
    arch        "LSB;label=32;scalar=64";
    class       volScalarField;
    location    "100";
    object      p;
}
// * * * * * * * * * * * * * * * * * * * * * * * * * * * * * * * * * * * * * //

dimensions      [0 2 -2 0 0 0 0];

internalField   nonuniform List<scalar> 
12225
(
-5.58234
-6.43488
-6.81385
-6.92807
-7.04795
-7.19477
-7.32927
-7.44308
-7.54402
-7.6386
-7.73165
-7.82511
-7.92017
-8.01887
-8.12453
-8.24372
-8.38197
-8.56128
-5.85293
-6.48728
-6.80542
-6.9151
-7.0316
-7.17417
-7.30639
-7.41979
-7.52196
-7.61899
-7.71369
-7.80769
-7.90249
-8.00007
-8.10323
-8.21664
-8.34099
-8.47176
-6.04912
-6.48379
-6.78095
-6.91338
-7.03529
-7.17458
-7.30408
-7.41592
-7.51728
-7.61381
-7.70735
-7.79955
-7.89193
-7.98617
-8.08396
-8.18727
-8.29131
-8.3809
-6.18762
-6.50567
-6.78851
-6.93068
-7.04797
-7.17813
-7.30192
-7.41071
-7.51006
-7.60477
-7.69667
-7.78703
-7.87709
-7.96789
-8.06016
-8.15364
-8.24185
-8.31174
-6.30464
-6.5474
-6.80339
-6.94607
-7.05938
-7.18274
-7.30204
-7.40837
-7.50592
-7.5989
-7.68911
-7.77737
-7.86461
-7.95137
-8.03767
-8.12194
-8.19808
-8.2558
-6.40953
-6.59312
-6.81683
-6.95833
-7.06993
-7.18781
-7.30267
-7.40642
-7.50202
-7.59314
-7.68132
-7.76713
-7.8512
-7.93371
-8.01412
-8.09027
-8.15693
-8.20629
-6.50285
-6.6404
-6.83239
-6.97047
-7.0801
-7.19232
-7.3024
-7.40335
-7.49684
-7.5859
-7.67182
-7.75504
-7.83585
-7.91415
-7.98901
-8.05821
-8.11763
-8.1618
-6.58577
-6.68907
-6.85186
-6.98355
-7.09012
-7.19648
-7.30152
-7.39934
-7.49041
-7.57711
-7.66053
-7.74097
-7.81842
-7.89255
-7.96231
-8.02576
-8.07984
-8.1209
-6.65984
-6.73817
-6.87483
-6.99773
-7.10033
-7.20086
-7.30064
-7.39489
-7.48316
-7.56718
-7.64783
-7.72526
-7.79925
-7.86933
-7.93451
-7.99326
-8.04345
-8.08281
-6.72621
-6.78633
-6.90031
-7.01296
-7.11075
-7.20557
-7.29993
-7.39019
-7.47532
-7.55635
-7.63399
-7.70822
-7.7787
-7.8449
-7.90605
-7.96098
-8.00833
-8.04662
-6.78573
-6.83253
-6.92735
-7.02913
-7.12138
-7.21056
-7.29944
-7.38541
-7.46707
-7.54488
-7.6193
-7.69021
-7.75719
-7.81976
-7.87733
-7.9291
-7.97427
-8.01199
-6.83465
-6.87242
-6.95268
-7.04448
-7.13111
-7.21517
-7.29902
-7.38085
-7.45911
-7.53376
-7.60509
-7.67293
-7.7368
-7.79625
-7.85089
-7.90021
-7.94381
-7.98105
-6.87818
-6.90933
-6.9774
-7.05971
-7.14054
-7.21957
-7.2985
-7.37612
-7.45084
-7.52226
-7.59046
-7.65521
-7.71608
-7.77266
-7.82465
-7.87183
-7.91398
-7.95089
-6.92195
-6.94751
-7.00429
-7.07663
-7.15073
-7.2241
-7.29757
-7.37032
-7.44088
-7.50853
-7.57306
-7.63432
-7.69187
-7.74539
-7.79467
-7.8396
-7.8803
-7.91658
-6.96406
-6.98492
-7.03177
-7.09421
-7.16087
-7.22806
-7.29565
-7.36296
-7.42875
-7.49205
-7.55252
-7.60982
-7.66377
-7.71402
-7.76051
-7.80312
-7.84214
-7.87751
-7.00173
-7.01876
-7.05734
-7.1106
-7.16959
-7.23031
-7.2918
-7.35333
-7.41383
-7.47241
-7.52839
-7.58152
-7.6315
-7.67833
-7.72178
-7.76198
-7.79894
-7.83298
-7.03115
-7.0452
-7.07729
-7.12275
-7.17456
-7.22892
-7.28442
-7.34018
-7.39525
-7.44882
-7.50018
-7.54885
-7.5947
-7.63772
-7.67793
-7.71522
-7.74974
-7.78153
-7.04676
-7.05872
-7.08636
-7.12607
-7.17208
-7.22093
-7.27114
-7.32169
-7.37168
-7.42037
-7.4671
-7.51132
-7.55294
-7.59198
-7.62856
-7.66251
-7.69398
-7.72292
-7.04016
-7.05119
-7.07694
-7.11391
-7.15665
-7.20191
-7.24835
-7.29498
-7.34093
-7.38545
-7.42802
-7.46811
-7.50568
-7.5407
-7.57339
-7.60351
-7.63128
-7.65659
-7.00642
-7.01859
-7.04672
-7.08589
-7.12976
-7.17498
-7.22084
-7.26632
-7.31084
-7.35328
-7.39358
-7.431
-7.466
-7.49811
-7.52801
-7.55505
-7.57993
-7.60222
-6.96201
-6.97675
-7.01021
-7.05484
-7.10221
-7.14951
-7.19652
-7.2429
-7.28737
-7.32947
-7.36859
-7.40494
-7.43822
-7.46892
-7.49667
-7.52198
-7.54443
-7.56502
-6.90707
-6.92655
-6.96923
-7.02231
-7.07474
-7.12503
-7.17453
-7.22267
-7.26822
-7.31048
-7.34939
-7.38509
-7.41762
-7.4472
-7.47372
-7.49746
-7.51851
-7.53746
-6.84306
-6.87055
-6.92729
-6.99118
-7.049
-7.10275
-7.15545
-7.20608
-7.25303
-7.29591
-7.33502
-7.37049
-7.40272
-7.43148
-7.45728
-7.47978
-7.4999
-7.51762
-6.77022
-6.81101
-6.88777
-6.96349
-7.0258
-7.08324
-7.1398
-7.19313
-7.24153
-7.28517
-7.32467
-7.36027
-7.39216
-7.42055
-7.44549
-7.46741
-7.48659
-7.50378
-6.68793
-6.75021
-6.85415
-6.9407
-7.00539
-7.06643
-7.12725
-7.18329
-7.23302
-7.27752
-7.31757
-7.35341
-7.38511
-7.41299
-7.43732
-7.45857
-7.47706
-7.49382
-6.5955
-6.69026
-6.82797
-6.92315
-6.98831
-7.05257
-7.11712
-7.17529
-7.22613
-7.27146
-7.31226
-7.34855
-7.38031
-7.40795
-7.43187
-7.45265
-7.47079
-7.48739
-6.49257
-6.6354
-6.80592
-6.90525
-6.97214
-7.04126
-7.10944
-7.16916
-7.22077
-7.26674
-7.30791
-7.34446
-7.37606
-7.40339
-7.42683
-7.44686
-7.46436
-7.48062
-6.3696
-6.60009
-6.79188
-6.88198
-6.95038
-7.02762
-7.10162
-7.16453
-7.21854
-7.2665
-7.30925
-7.34664
-7.37872
-7.4063
-7.42981
-7.44945
-7.4663
-7.48305
-6.1844
-6.59264
-6.81666
-6.88516
-6.94454
-7.02258
-7.09723
-7.15962
-7.21346
-7.26176
-7.30489
-7.34245
-7.3745
-7.40164
-7.42449
-7.44347
-7.45941
-7.47359
-5.91843
-6.5195
-6.80978
-6.8856
-6.94915
-7.0331
-7.11158
-7.17566
-7.23032
-7.27927
-7.32265
-7.36004
-7.39147
-7.4169
-7.43716
-7.45381
-7.46721
-7.47565
-8.326
-8.3273
-8.3426
-8.36466
-8.38488
-8.39873
-8.40847
-8.41642
-8.42341
-8.42907
-8.43442
-8.44022
-8.44796
-8.45776
-8.47029
-8.48494
-8.50222
-8.52177
-8.54429
-8.56904
-8.5962
-8.62451
-8.65357
-8.68128
-8.7065
-8.72643
-8.73937
-8.74191
-8.73176
-8.70505
-8.65944
-8.59124
-8.49809
-8.37671
-8.2257
-8.04269
-7.82742
-7.58127
-7.30871
-7.01204
-6.69571
-6.36751
-6.03625
-5.70891
-5.39652
-5.10547
-4.84173
-4.61304
-4.42168
-4.26492
-4.14526
-4.05872
-3.99751
-3.95721
-3.93947
-3.94317
-3.96647
-4.00519
-4.05516
-4.11098
-4.16825
-4.22237
-4.2713
-4.31421
-4.35032
-4.38005
-4.40535
-4.42922
-4.45395
-4.47903
-4.50312
-4.52565
-4.54109
-4.54251
-4.52133
-4.46913
-4.38369
-4.27686
-4.17629
-4.11258
-4.10994
-4.18848
-4.37958
-4.74099
-5.34571
-6.26534
-7.52741
-9.06617
-10.7644
-12.5105
-14.2169
-15.8266
-17.3061
-18.6384
-19.8159
-20.8389
-21.7103
-22.435
-23.0169
-23.4603
-23.7685
-23.9458
-23.9954
-23.9221
-23.7307
-23.4276
-23.0191
-22.5144
-21.9202
-21.2443
-20.494
-19.6783
-18.8048
-17.8825
-16.9205
-15.9279
-14.9126
-13.8825
-12.8443
-11.8045
-10.7686
-9.74227
-8.73108
-7.73985
-6.7721
-5.83131
-4.92041
-4.04204
-3.19804
-2.38984
-1.61843
-0.884969
-0.190321
0.464579
1.07916
1.65294
2.18609
2.67969
3.13572
3.55756
3.94991
4.31923
4.67269
5.01864
5.36546
5.72183
6.09536
6.49271
6.91836
7.37477
7.86183
8.37751
8.91735
9.47529
10.0435
10.6136
11.1772
11.7264
12.2534
12.7516
13.2162
13.6444
14.034
14.384
14.694
14.9647
15.1962
15.3896
15.5472
15.6725
15.7702
15.8452
15.9026
15.9479
15.9881
16.0305
16.0878
16.1694
16.325
16.4973
-8.33727
-8.3436
-8.36026
-8.37871
-8.39331
-8.40503
-8.41511
-8.4228
-8.42827
-8.43216
-8.43581
-8.43994
-8.44572
-8.45342
-8.46385
-8.47711
-8.49397
-8.51408
-8.53755
-8.56365
-8.59235
-8.62238
-8.65297
-8.68216
-8.7087
-8.73013
-8.74473
-8.74941
-8.74174
-8.71824
-8.67668
-8.61417
-8.52907
-8.41976
-8.2852
-8.12298
-7.93214
-7.71336
-7.46934
-7.20253
-6.91649
-6.61701
-6.31277
-6.0103
-5.71739
-5.44272
-5.19177
-4.96986
-4.78328
-4.62957
-4.50754
-4.41773
-4.35527
-4.31497
-4.2955
-4.29447
-4.30841
-4.33249
-4.36221
-4.39293
-4.42132
-4.44581
-4.46584
-4.48098
-4.49103
-4.4962
-4.49869
-4.50211
-4.51115
-4.52594
-4.54286
-4.55928
-4.56826
-4.55826
-4.52088
-4.45973
-4.37324
-4.25534
-4.13628
-4.06757
-4.09206
-4.22388
-4.50105
-4.99059
-5.75435
-6.83697
-8.22902
-9.82828
-11.5188
-13.2057
-14.8261
-16.3413
-17.7299
-18.9818
-20.0943
-21.0666
-21.8995
-22.594
-23.1533
-23.581
-23.8802
-24.052
-24.0992
-24.0257
-23.8371
-23.5375
-23.1331
-22.6313
-22.0394
-21.3645
-20.6146
-19.7987
-18.925
-18.0021
-17.0392
-16.0451
-15.0283
-13.9963
-12.9562
-11.9141
-10.8752
-9.84507
-8.82918
-7.83251
-6.85877
-5.91128
-4.9931
-4.10692
-3.2549
-2.43879
-1.65987
-0.919491
-0.218784
0.441191
1.05969
1.63619
2.17075
2.66454
3.11971
3.53963
3.92922
4.295
4.64443
4.98596
5.32832
5.68033
6.04968
6.44299
6.86482
7.31758
7.80101
8.31284
8.84846
9.4018
9.9652
10.5306
11.0896
11.6346
12.158
12.6536
13.1166
13.5443
13.9345
14.2859
14.5972
14.8689
15.1015
15.2967
15.4566
15.5849
15.6859
15.7645
15.8258
15.8755
15.9201
15.9664
16.026
16.1039
16.2388
16.3664
-8.36517
-8.36769
-8.37696
-8.38851
-8.39844
-8.40779
-8.41645
-8.4232
-8.42816
-8.43178
-8.43507
-8.43848
-8.44306
-8.44927
-8.45813
-8.46979
-8.48501
-8.50364
-8.52596
-8.55138
-8.57963
-8.6092
-8.63902
-8.66717
-8.69237
-8.71259
-8.7263
-8.73109
-8.72536
-8.70678
-8.6738
-8.62445
-8.55673
-8.46775
-8.35643
-8.22123
-8.06082
-7.87494
-7.66498
-7.43249
-7.18015
-6.91241
-6.63556
-6.35554
-6.07968
-5.81598
-5.57058
-5.34871
-5.15543
-4.99113
-4.85468
-4.74552
-4.66241
-4.60323
-4.56668
-4.5509
-4.55353
-4.57114
-4.59956
-4.63347
-4.66737
-4.69628
-4.71592
-4.72331
-4.71777
-4.70128
-4.67705
-4.64911
-4.62127
-4.59438
-4.56781
-4.54225
-4.51816
-4.48994
-4.44966
-4.40893
-4.37606
-4.35372
-4.36461
-4.43083
-4.56441
-4.80489
-5.20598
-5.85968
-6.80281
-7.99339
-9.37452
-10.8705
-12.409
-13.9347
-15.4087
-16.8027
-18.0972
-19.2785
-20.3396
-21.2758
-22.0848
-22.7651
-23.3171
-23.7419
-24.041
-24.214
-24.2633
-24.1924
-24.0064
-23.7096
-23.3084
-22.8078
-22.2151
-21.5386
-20.7871
-19.9685
-19.0917
-18.1651
-17.1983
-16.2001
-15.1792
-14.1433
-13.0992
-12.0525
-11.0084
-9.97257
-8.95041
-7.94651
-6.96518
-6.00964
-5.08301
-4.18785
-3.32658
-2.50116
-1.7133
-0.96443
-0.256026
0.410684
1.03471
1.61547
2.15302
2.64829
3.10344
3.52177
3.90849
4.27005
4.6143
4.94989
5.28627
5.63243
5.99649
6.38509
6.80294
7.25241
7.73314
8.24238
8.7755
9.326
9.88631
10.4484
11.0041
11.5457
12.0662
12.5598
13.022
13.4494
13.8398
14.1918
14.5042
14.7771
15.011
15.2074
15.369
15.4993
15.6025
15.6834
15.7473
15.7995
15.8464
15.8941
15.952
16.0215
16.1257
16.188
-8.39534
-8.3944
-8.40096
-8.40937
-8.4171
-8.42564
-8.43374
-8.43986
-8.44424
-8.44731
-8.45002
-8.4528
-8.45663
-8.4619
-8.46957
-8.47985
-8.49355
-8.51058
-8.53129
-8.55519
-8.58205
-8.61044
-8.6394
-8.66729
-8.69307
-8.71497
-8.7316
-8.74063
-8.74069
-8.73029
-8.70852
-8.67273
-8.62056
-8.5501
-8.46021
-8.34862
-8.21358
-8.05388
-7.86983
-7.66249
-7.43371
-7.18633
-6.9254
-6.65675
-6.3875
-6.12494
-5.87637
-5.64816
-5.44517
-5.27004
-5.12308
-5.00263
-4.90695
-4.83442
-4.78393
-4.75412
-4.74356
-4.74991
-4.76994
-4.79945
-4.83314
-4.86513
-4.88948
-4.90083
-4.89598
-4.87449
-4.83635
-4.78144
-4.71216
-4.63529
-4.55928
-4.49352
-4.44444
-4.41235
-4.39337
-4.38791
-4.39952
-4.43995
-4.52844
-4.6762
-4.92108
-5.33914
-5.99269
-6.88004
-7.96335
-9.19269
-10.5238
-11.9128
-13.3207
-14.7148
-16.0689
-17.3604
-18.5709
-19.686
-20.6957
-21.5932
-22.3734
-23.0335
-23.5716
-23.987
-24.2787
-24.4469
-24.4935
-24.4211
-24.2331
-23.9349
-23.5319
-23.029
-22.4327
-21.7519
-20.9955
-20.1709
-19.287
-18.3531
-17.3788
-16.3735
-15.3454
-14.3022
-13.2504
-12.1955
-11.1436
-10.1001
-9.06988
-8.05744
-7.06704
-6.10233
-5.1664
-4.26195
-3.39135
-2.55667
-1.75972
-1.0021
-0.285538
0.388511
1.01888
1.60491
2.14661
2.64462
3.10082
3.51858
3.90302
4.26072
4.60001
4.93001
5.26059
5.60118
5.96055
6.34551
6.76063
7.20823
7.688
8.19682
8.72985
9.28015
9.83995
10.4011
10.9559
11.4966
12.0165
12.5097
12.9718
13.3992
13.7893
14.1406
14.4523
14.7243
14.9573
15.1528
15.3136
15.443
15.5456
15.6257
15.6885
15.7395
15.7845
15.8289
15.8795
15.9348
16.0065
16.0112
-8.42755
-8.42558
-8.43247
-8.4376
-8.44305
-8.45095
-8.45927
-8.46627
-8.47195
-8.47651
-8.48072
-8.48482
-8.48959
-8.49527
-8.5028
-8.51249
-8.52528
-8.5413
-8.56111
-8.58426
-8.61075
-8.63974
-8.6705
-8.70122
-8.73076
-8.75742
-8.77988
-8.79636
-8.80604
-8.80737
-8.79869
-8.77746
-8.74218
-8.69109
-8.62239
-8.53312
-8.42111
-8.28468
-8.12305
-7.93595
-7.72484
-7.4923
-7.24277
-6.9813
-6.71412
-6.44886
-6.19331
-5.95342
-5.73573
-5.54493
-5.38162
-5.24491
-5.13353
-5.04502
-4.97766
-4.93049
-4.9027
-4.8933
-4.90044
-4.92063
-4.94867
-4.97856
-5.00405
-5.01957
-5.02061
-5.00256
-4.95903
-4.88741
-4.79321
-4.68593
-4.57825
-4.48476
-4.41352
-4.36356
-4.33557
-4.3348
-4.37062
-4.45839
-4.61815
-4.88093
-5.32821
-6.00599
-6.88896
-7.93214
-9.09088
-10.3274
-11.6141
-12.9266
-14.2418
-15.5401
-16.8013
-18.0086
-19.1457
-20.1994
-21.1587
-22.0164
-22.7646
-23.3996
-23.918
-24.3179
-24.596
-24.753
-24.7904
-24.711
-24.5163
-24.2116
-23.8013
-23.2913
-22.688
-21.9994
-21.2333
-20.3988
-19.5042
-18.5605
-17.5763
-16.5609
-15.5229
-14.4698
-13.4079
-12.343
-11.2816
-10.2291
-9.18992
-8.16861
-7.16923
-6.1956
-5.25077
-4.33752
-3.45825
-2.61506
-1.80968
-1.04395
-0.319597
0.361802
0.998956
1.59093
2.13729
2.63856
3.0963
3.5138
3.89591
4.24972
4.58389
4.90831
5.23294
5.56804
5.92271
6.30416
6.71686
7.16307
7.64212
8.15089
8.68401
9.23464
9.79477
10.3564
10.9117
11.4533
11.9739
12.4679
12.9304
13.3579
13.7479
14.0987
14.4096
14.6807
14.9127
15.1074
15.2671
15.3956
15.4968
15.5754
15.6363
15.6845
15.7253
15.7633
15.803
15.84
15.8802
15.8406
-8.46201
-8.46107
-8.46717
-8.46993
-8.47479
-8.4831
-8.49254
-8.50136
-8.50944
-8.5168
-8.52399
-8.53109
-8.53872
-8.54701
-8.55684
-8.56852
-8.58309
-8.60087
-8.6226
-8.64795
-8.677
-8.70903
-8.74373
-8.77968
-8.81582
-8.85035
-8.88225
-8.91008
-8.9327
-8.94815
-8.95519
-8.95211
-8.9374
-8.90858
-8.86326
-8.79842
-8.71166
-8.60048
-8.46321
-8.29869
-8.10785
-7.89214
-7.65508
-7.40207
-7.13892
-6.87181
-6.60836
-6.35471
-6.11723
-5.90125
-5.70975
-5.54405
-5.40379
-5.28729
-5.19343
-5.12059
-5.06779
-5.03497
-5.02156
-5.02539
-5.04176
-5.06471
-5.08846
-5.10751
-5.11531
-5.10246
-5.06178
-4.99086
-4.89438
-4.78209
-4.66373
-4.5495
-4.45075
-4.37645
-4.33617
-4.34388
-4.41905
-4.58337
-4.86653
-5.32922
-6.00715
-6.87838
-7.89644
-9.0156
-10.2004
-11.4259
-12.6743
-13.9288
-15.1755
-16.3992
-17.5874
-18.7247
-19.7983
-20.7965
-21.7089
-22.5264
-23.2418
-23.8492
-24.345
-24.7249
-24.9863
-25.1282
-25.1522
-25.0601
-24.8539
-24.5373
-24.1152
-23.5931
-22.9777
-22.2767
-21.498
-20.6504
-19.7433
-18.7867
-17.7897
-16.7618
-15.7119
-14.6472
-13.5743
-12.499
-11.4273
-10.3648
-9.31631
-8.28619
-7.27846
-6.29679
-5.34427
-4.4235
-3.53691
-2.6865
-1.87409
-1.1015
-0.370498
0.317306
0.960465
1.55791
2.10889
2.61358
3.07328
3.49094
3.87147
4.2221
4.55192
4.87135
5.19098
5.52149
5.87231
6.25082
6.66161
7.1068
7.58534
8.09386
8.62669
9.17709
9.73726
10.2992
10.8549
11.3969
11.9179
12.4119
12.8741
13.3013
13.6906
14.0405
14.3504
14.6206
14.8517
15.0458
15.2049
15.3328
15.4332
15.5107
15.5698
15.6153
15.6516
15.6825
15.7105
15.7295
15.7422
15.6705
-8.49722
-8.49748
-8.50225
-8.50535
-8.51173
-8.52148
-8.53269
-8.54396
-8.55516
-8.56619
-8.57747
-8.58892
-8.60108
-8.61405
-8.6286
-8.64504
-8.66438
-8.68699
-8.71375
-8.74459
-8.77962
-8.81805
-8.85968
-8.90345
-8.94868
-8.99394
-9.03844
-9.08066
-9.11953
-9.15343
-9.18126
-9.20116
-9.21133
-9.20904
-9.19159
-9.15573
-9.09885
-9.01789
-8.91035
-8.77407
-8.60892
-8.41532
-8.19563
-7.95357
-7.69435
-7.42385
-7.14985
-6.87884
-6.61628
-6.36722
-6.13643
-5.92772
-5.7428
-5.58177
-5.44547
-5.33402
-5.24651
-5.1819
-5.14027
-5.12071
-5.11943
-5.13118
-5.14975
-5.16821
-5.17843
-5.17162
-5.14244
-5.08963
-5.01283
-4.91466
-4.79975
-4.67988
-4.57136
-4.49153
-4.45977
-4.50017
-4.63608
-4.90258
-5.35418
-6.0148
-6.8617
-7.85182
-8.94013
-10.0907
-11.2786
-12.4868
-13.7011
-14.91
-16.1029
-17.2702
-18.4003
-19.4813
-20.5025
-21.4526
-22.3225
-23.1026
-23.786
-24.3653
-24.8363
-25.1938
-25.4357
-25.5596
-25.5665
-25.4573
-25.2346
-24.9013
-24.4629
-23.9241
-23.2923
-22.5745
-21.7794
-20.9157
-19.9932
-19.0213
-18.0097
-16.9675
-15.9039
-14.8262
-13.7406
-12.653
-11.5697
-10.4965
-9.43833
-8.3996
-7.38422
-6.39573
-5.43705
-4.51074
-3.61902
-2.76386
-1.94697
-1.17004
-0.43474
0.257231
0.904406
1.50557
2.05995
2.56731
3.02872
3.44666
3.82612
4.17433
4.50087
4.81656
5.13279
5.46037
5.80915
6.1862
6.59609
7.04064
7.51887
8.02707
8.55979
9.10992
9.66975
10.2311
10.7861
11.327
11.8467
12.3393
12.8001
13.2256
13.6133
13.9615
14.2698
14.5386
14.7688
14.9621
15.1209
15.2485
15.3485
15.4253
15.483
15.5259
15.5579
15.5816
15.5984
15.6009
15.5906
15.4963
-8.53191
-8.53252
-8.53794
-8.54378
-8.55276
-8.56465
-8.57824
-8.59254
-8.60745
-8.62276
-8.63877
-8.65543
-8.67327
-8.69235
-8.71339
-8.73665
-8.76308
-8.79302
-8.82735
-8.86616
-8.90991
-8.95806
-9.01039
-9.06583
-9.12393
-9.18379
-9.24479
-9.30542
-9.36484
-9.42187
-9.47558
-9.52379
-9.5643
-9.59421
-9.61063
-9.60987
-9.58867
-9.54317
-9.47017
-9.36666
-9.23147
-9.06427
-8.86627
-8.63926
-8.38661
-8.11252
-7.82399
-7.52818
-7.23169
-6.94032
-6.65963
-6.39516
-6.15154
-5.93144
-5.73727
-5.57128
-5.43494
-5.32849
-5.25192
-5.20317
-5.17845
-5.17332
-5.18097
-5.19362
-5.20413
-5.20721
-5.19836
-5.17388
-5.12731
-5.05545
-4.96178
-4.85965
-4.76768
-4.70866
-4.70605
-4.78738
-4.99349
-5.38528
-5.99894
-6.80929
-7.76851
-8.82966
-9.95538
-11.1192
-12.3033
-13.4946
-14.6822
-15.8571
-17.0112
-18.1357
-19.2216
-20.2593
-21.238
-22.1484
-22.9812
-23.7283
-24.3813
-24.9338
-25.3796
-25.7142
-25.934
-26.0372
-26.0231
-25.8931
-25.6495
-25.2958
-24.8364
-24.277
-23.6244
-22.8862
-22.0711
-21.1882
-20.2472
-19.2576
-18.2291
-17.1708
-16.0914
-14.998
-13.8971
-12.7951
-11.6987
-10.6137
-9.54532
-8.49799
-7.47548
-6.48115
-5.5177
-4.58757
-3.69277
-2.83515
-2.01618
-1.23741
-0.500329
0.193481
0.842578
1.44558
2.00153
2.50991
2.97145
3.38854
3.76615
4.11179
4.43539
4.74825
5.06225
5.38851
5.73688
6.11434
6.52521
6.97082
7.44974
7.95804
8.49027
9.03926
9.59738
10.1565
10.709
11.2469
11.7635
12.2529
12.7107
13.1333
13.5181
13.8636
14.1696
14.4366
14.6655
14.8579
15.0162
15.1434
15.2433
15.3195
15.3762
15.4169
15.4449
15.4617
15.4682
15.4564
15.4268
15.3165
-8.56591
-8.56663
-8.57508
-8.58473
-8.59666
-8.61119
-8.62767
-8.64536
-8.66412
-8.68378
-8.70468
-8.72682
-8.75075
-8.77655
-8.80495
-8.83622
-8.87125
-8.91034
-8.95436
-9.00347
-9.05822
-9.11845
-9.18428
-9.25503
-9.33049
-9.40979
-9.49248
-9.57723
-9.66328
-9.74926
-9.83397
-9.91536
-9.99172
-10.0602
-10.1176
-10.1591
-10.1805
-10.177
-10.1443
-10.0789
-9.97817
-9.84037
-9.66533
-9.45354
-9.20745
-8.93004
-8.62568
-8.29987
-7.96025
-7.61497
-7.27196
-6.93824
-6.62116
-6.32663
-6.05969
-5.82503
-5.62651
-5.46672
-5.34592
-5.26108
-5.20762
-5.18032
-5.17362
-5.18023
-5.19373
-5.21043
-5.2253
-5.23013
-5.21629
-5.18001
-5.1236
-5.05802
-5.00142
-4.97479
-5.00627
-5.13916
-5.43803
-5.96003
-6.70403
-7.61961
-8.65155
-9.75678
-10.9051
-12.0764
-13.2569
-14.4361
-15.6056
-16.7577
-17.8843
-18.9793
-20.0332
-21.0385
-21.9849
-22.8642
-23.6671
-24.3861
-25.0127
-25.5407
-25.9629
-26.2749
-26.4721
-26.553
-26.516
-26.3629
-26.0956
-25.7182
-25.2345
-24.6512
-23.9746
-23.213
-22.375
-21.4701
-20.5077
-19.4978
-18.4496
-17.3725
-16.2743
-15.1624
-14.0436
-12.9254
-11.8145
-10.717
-9.63798
-8.58185
-7.55236
-6.55254
-5.585
-4.65174
-3.7547
-2.89534
-2.07513
-1.2955
-0.55806
0.135798
0.78454
1.38681
1.94144
2.44791
2.90667
3.32047
3.69436
4.03646
4.35704
4.66814
4.98181
5.30944
5.66018
6.0407
6.45441
6.90221
7.38205
7.89026
8.42109
8.96774
9.52252
10.0779
10.6259
11.1589
11.6704
12.1551
12.6083
13.0266
13.4074
13.7493
14.0523
14.3169
14.544
14.7352
14.8927
15.0195
15.119
15.1948
15.2504
15.289
15.3132
15.324
15.3212
15.2971
15.2518
15.1302
-8.59983
-8.60132
-8.61426
-8.62792
-8.6427
-8.65979
-8.67906
-8.69986
-8.72215
-8.74582
-8.77126
-8.79862
-8.82848
-8.86104
-8.89703
-8.93677
-8.98115
-9.03054
-9.08577
-9.14712
-9.21527
-9.2902
-9.3723
-9.46127
-9.55717
-9.65942
-9.76786
-9.88156
-9.99992
-10.1213
-10.2443
-10.3667
-10.4863
-10.5998
-10.7038
-10.7936
-10.8644
-10.9099
-10.9248
-10.904
-10.8436
-10.7396
-10.5899
-10.3932
-10.1505
-9.8642
-9.53849
-9.1783
-8.78989
-8.38151
-7.96416
-7.54823
-7.1439
-6.76043
-6.40628
-6.0892
-5.81585
-5.59035
-5.41365
-5.28381
-5.19654
-5.1452
-5.12438
-5.12677
-5.14544
-5.17725
-5.21485
-5.24637
-5.26481
-5.26698
-5.25258
-5.22739
-5.20697
-5.21669
-5.29642
-5.50367
-5.9103
-6.55025
-7.39436
-8.38361
-9.46519
-10.6013
-11.767
-12.946
-14.1269
-15.301
-16.4611
-17.5996
-18.7103
-19.7852
-20.8186
-21.8012
-22.7249
-23.5807
-24.3609
-25.0571
-25.6621
-26.1684
-26.5697
-26.8604
-27.0363
-27.0946
-27.0348
-26.8577
-26.5661
-26.1634
-25.6544
-25.0453
-24.3432
-23.5562
-22.6934
-21.7642
-20.7782
-19.7453
-18.6748
-17.5755
-16.4553
-15.3221
-14.1838
-13.0481
-11.922
-10.8113
-9.72126
-8.65594
-7.61902
-6.61347
-5.64172
-4.70555
-3.80663
-2.9463
-2.12579
-1.34628
-0.60921
0.0838784
0.731128
1.33083
1.88161
2.38289
2.83552
3.24288
3.61094
3.94864
4.26708
4.57862
4.89525
5.22769
5.58396
5.96973
6.38767
6.83802
7.31866
7.82605
8.35447
8.89734
9.4474
9.99727
10.539
11.0654
11.5704
12.0488
12.4961
12.9089
13.2845
13.622
13.9214
14.1832
14.408
14.5976
14.754
14.8802
14.9791
15.0543
15.1087
15.1454
15.166
15.1712
15.1602
15.1258
15.0677
14.9386
-8.63456
-8.63719
-8.65473
-8.67174
-8.68871
-8.70789
-8.72948
-8.7529
-8.77815
-8.80525
-8.8347
-8.8668
-8.90218
-8.94111
-8.9844
-9.03251
-9.08637
-9.14644
-9.21367
-9.28845
-9.37158
-9.46327
-9.56412
-9.67404
-9.79338
-9.92181
-10.0594
-10.2054
-10.3595
-10.5205
-10.6869
-10.8565
-11.0264
-11.1926
-11.3511
-11.4966
-11.6236
-11.7249
-11.7937
-11.8232
-11.8076
-11.7414
-11.62
-11.4402
-11.2009
-10.9024
-10.5485
-10.1445
-9.69817
-9.21854
-8.71756
-8.20898
-7.70696
-7.22428
-6.77285
-6.36378
-6.00599
-5.7051
-5.46345
-5.28102
-5.15492
-5.07747
-5.04139
-5.03982
-5.06486
-5.11061
-5.16628
-5.21927
-5.26345
-5.29492
-5.31159
-5.31879
-5.33379
-5.38857
-5.53176
-5.83174
-6.3502
-7.09213
-8.01369
-9.05827
-10.1785
-11.3411
-12.5247
-13.7151
-14.9025
-16.079
-17.2378
-18.3722
-19.4751
-20.5408
-21.5622
-22.5312
-23.44
-24.2798
-25.0437
-25.7228
-26.3107
-26.7993
-27.1827
-27.4542
-27.6105
-27.6478
-27.5661
-27.3659
-27.0507
-26.6231
-26.089
-25.454
-24.7259
-23.9126
-23.0239
-22.0686
-21.0569
-19.9982
-18.9018
-17.7768
-16.632
-15.476
-14.3173
-13.1637
-12.0221
-10.8984
-9.79747
-8.72339
-7.67943
-6.66837
-5.69225
-4.75289
-3.8516
-2.98983
-2.16874
-1.38962
-0.653912
0.0364151
0.679424
1.27329
1.81679
2.30957
2.75341
3.15258
3.51449
3.84908
4.16824
4.48386
4.80732
5.14764
5.51172
5.90394
6.32654
6.77914
7.26013
7.7657
8.29055
8.82825
9.37223
9.91485
10.4487
10.9671
11.4643
11.9352
12.3753
12.7813
13.1511
13.4836
13.779
14.0374
14.2597
14.4473
14.6023
14.7275
14.8258
14.9002
14.9535
14.9881
15.0054
15.0056
14.9876
14.9444
14.8762
14.7418
-8.67065
-8.67389
-8.69522
-8.71468
-8.733
-8.75352
-8.77676
-8.80213
-8.82965
-8.85946
-8.8922
-8.92827
-8.96838
-9.01294
-9.06287
-9.11876
-9.18164
-9.25214
-9.33129
-9.41972
-9.5184
-9.62777
-9.74863
-9.8812
-10.026
-10.1829
-10.3523
-10.5335
-10.7263
-10.9296
-11.1423
-11.3619
-11.5859
-11.8098
-12.029
-12.2369
-12.4267
-12.5899
-12.7183
-12.8032
-12.8369
-12.8119
-12.7216
-12.56
-12.3237
-12.0117
-11.6264
-11.1731
-10.6608
-10.1009
-9.50768
-8.89779
-8.28953
-7.70024
-7.14622
-6.64175
-6.19726
-5.81944
-5.51184
-5.27584
-5.10882
-5.00337
-4.9504
-4.94073
-4.96501
-5.01387
-5.07369
-5.13265
-5.18529
-5.22836
-5.26224
-5.29455
-5.34555
-5.45429
-5.67763
-6.08278
-6.70744
-7.53612
-8.52226
-9.6142
-10.7698
-11.9598
-13.1648
-14.3723
-15.573
-16.7596
-17.9254
-19.0637
-20.1684
-21.2326
-22.2505
-23.2143
-24.1153
-24.9464
-25.6995
-26.3675
-26.9427
-27.418
-27.7865
-28.0424
-28.1811
-28.2003
-28.0985
-27.8775
-27.54
-27.0891
-26.5303
-25.8701
-25.1152
-24.2748
-23.3581
-22.3746
-21.3339
-20.246
-19.121
-17.9687
-16.7987
-15.6202
-14.4415
-13.2703
-12.1135
-10.9769
-9.86515
-8.78217
-7.731
-6.71428
-5.73399
-4.79179
-3.88891
-3.02668
-2.20632
-1.42929
-0.697307
-0.0125539
0.622975
1.20766
1.74064
2.22255
2.6564
3.04796
3.40602
3.74137
4.06556
4.38948
4.72286
5.07313
5.44604
5.84512
6.27207
6.72656
7.20706
7.70984
8.22998
8.76139
9.29785
9.83188
10.3565
10.8658
11.3541
11.8162
12.2482
12.6464
13.0097
13.3368
13.6278
13.8826
14.102
14.2874
14.441
14.565
14.6626
14.7362
14.7885
14.8212
14.8355
14.8311
14.807
14.7566
14.6802
14.5421
-8.70773
-8.71104
-8.73483
-8.75542
-8.77399
-8.79492
-8.81893
-8.84535
-8.87423
-8.90584
-8.94092
-8.98002
-9.0239
-9.07311
-9.12867
-9.19136
-9.26228
-9.34229
-9.4326
-9.53405
-9.64779
-9.77458
-9.91546
-10.0709
-10.2417
-10.4279
-10.63
-10.8475
-11.0805
-11.3278
-11.5883
-11.8598
-12.1394
-12.4226
-12.7043
-12.9771
-13.2329
-13.4618
-13.6537
-13.7975
-13.8837
-13.9024
-13.8447
-13.7021
-13.4688
-13.1417
-12.7223
-12.2162
-11.634
-10.9896
-10.3005
-9.58654
-8.86933
-8.17044
-7.51031
-6.90689
-6.37427
-5.92163
-5.55201
-5.26434
-5.05475
-4.91809
-4.84288
-4.81429
-4.82083
-4.85154
-4.89533
-4.94101
-4.98374
-5.02422
-5.06545
-5.11926
-5.2133
-5.39094
-5.70912
-6.22164
-6.94349
-7.84939
-8.89435
-10.0318
-11.2242
-12.4451
-13.6769
-14.9079
-16.1291
-17.3334
-18.5139
-19.6645
-20.7781
-21.8496
-22.8715
-23.8371
-24.7376
-25.5663
-26.3148
-26.977
-27.5443
-28.0105
-28.3682
-28.6119
-28.7364
-28.7402
-28.6212
-28.3814
-28.0232
-27.5499
-26.9666
-26.2802
-25.4974
-24.6276
-23.68
-22.665
-21.5929
-20.4747
-19.3211
-18.1424
-16.9486
-15.7487
-14.5513
-13.3636
-12.1925
-11.0436
-9.92152
-8.83011
-7.77248
-6.75098
-5.76763
-4.82377
-3.92081
-3.05991
-2.24266
-1.47064
-0.74581
-0.0701191
0.55454
1.12704
1.64737
2.11789
2.54311
2.93043
3.28929
3.63038
3.96384
4.29918
4.6442
5.00532
5.38715
5.79283
6.22361
6.67946
7.15848
7.65762
8.17196
8.69609
9.22364
9.74803
10.2624
10.7616
11.2398
11.6924
12.1152
12.5054
12.8616
13.1833
13.4696
13.7206
13.9369
14.1202
14.2722
14.3954
14.4922
14.5652
14.6164
14.6474
14.6588
14.6504
14.6205
14.5638
14.4803
14.3392
-8.74476
-8.74757
-8.77213
-8.79235
-8.81001
-8.83027
-8.85395
-8.88037
-8.90961
-8.94204
-8.97845
-9.01948
-9.066
-9.11869
-9.17865
-9.24679
-9.3244
-9.41254
-9.51259
-9.62566
-9.75318
-9.89616
-10.0559
-10.2331
-10.4287
-10.6431
-10.8768
-11.1297
-11.4017
-11.6919
-11.9993
-12.3215
-12.6557
-12.9971
-13.3402
-13.6768
-13.9979
-14.292
-14.547
-14.7499
-14.8883
-14.9505
-14.9258
-14.8027
-14.5727
-14.2306
-13.7763
-13.215
-12.5588
-11.8249
-11.0354
-10.2149
-9.38922
-8.5833
-7.82062
-7.12168
-6.50281
-5.97441
-5.54
-5.19735
-4.94094
-4.76359
-4.6503
-4.58592
-4.55725
-4.55181
-4.56131
-4.57754
-4.59989
-4.63285
-4.68291
-4.7679
-4.92087
-5.18393
-5.60621
-6.22319
-7.03471
-8.01216
-9.11364
-10.2975
-11.53
-12.787
-14.0517
-15.3129
-16.5618
-17.791
-18.9938
-20.1639
-21.2946
-22.3797
-23.4132
-24.3868
-25.2935
-26.1255
-26.8758
-27.5368
-28.1017
-28.563
-28.9143
-29.1492
-29.2633
-29.2537
-29.1197
-28.8623
-28.4837
-27.9871
-27.3776
-26.6619
-25.849
-24.9479
-23.9688
-22.923
-21.8219
-20.6765
-19.4975
-18.2954
-17.0801
-15.8608
-14.646
-13.4431
-12.2588
-11.0986
-9.96727
-8.86864
-7.80573
-6.78086
-5.79597
-4.8524
-3.95157
-3.0948
-2.28387
-1.52053
-0.806501
-0.143319
0.467798
1.02667
1.53487
1.99636
2.41717
2.80543
3.17031
3.52132
3.86707
4.21545
4.57288
4.94489
5.3354
5.74714
6.18137
6.63786
7.11487
7.60956
8.11726
8.63307
9.15083
9.66454
10.1681
10.6561
11.1236
11.5662
11.9797
12.3615
12.7107
13.0267
13.3083
13.5555
13.7689
13.95
14.1005
14.2228
14.319
14.3914
14.4416
14.4709
14.4796
14.4673
14.4321
14.3695
14.2792
14.1354
-8.78014
-8.78184
-8.80544
-8.82393
-8.83948
-8.85783
-8.88003
-8.90542
-8.93397
-8.96612
-9.0027
-9.04449
-9.0924
-9.1472
-9.21006
-9.28207
-9.36461
-9.45894
-9.56673
-9.68938
-9.82863
-9.98581
-10.1624
-10.3593
-10.5775
-10.8175
-11.0801
-11.3651
-11.6725
-12.0015
-12.3513
-12.7194
-13.1032
-13.4977
-13.8968
-14.292
-14.6731
-15.0271
-15.3406
-15.5981
-15.7846
-15.8867
-15.8916
-15.7854
-15.5569
-15.1983
-14.7078
-14.0898
-13.357
-12.5294
-11.6339
-10.7012
-9.76279
-8.8483
-7.98419
-7.1921
-6.48835
-5.88285
-5.37973
-4.9766
-4.66616
-4.43618
-4.27163
-4.15899
-4.08284
-4.03112
-3.99772
-3.98004
-3.98381
-4.01836
-4.09411
-4.23336
-4.46693
-4.83062
-5.36048
-6.07572
-6.96956
-8.01422
-9.17185
-10.405
-11.6825
-12.9815
-14.286
-15.5844
-16.868
-18.129
-19.3615
-20.5575
-21.712
-22.8177
-23.8685
-24.8565
-25.7749
-26.616
-27.373
-28.038
-28.6045
-29.0649
-29.413
-29.642
-29.7474
-29.7253
-29.5756
-29.2986
-28.8976
-28.376
-27.7395
-26.9953
-26.1536
-25.224
-24.2178
-23.1459
-22.02
-20.851
-19.6501
-18.4276
-17.1934
-15.9569
-14.7266
-13.5101
-12.3141
-11.1442
-10.0053
-8.90125
-7.83484
-6.80867
-5.8245
-4.88393
-3.98824
-3.13902
-2.33781
-1.58628
-0.885584
-0.236588
0.36073
0.907476
1.4069
1.86399
2.2857
2.67982
3.05473
3.41825
3.77777
4.13963
4.50946
4.89183
5.29051
5.70771
6.1448
6.60121
7.07569
7.56507
8.06549
8.57214
9.07947
9.58166
10.0736
10.5501
11.0068
11.439
11.8433
12.2171
12.5592
12.8691
13.1459
13.3891
13.5995
13.7782
13.9271
14.0482
14.1437
14.2153
14.2646
14.2923
14.2988
14.2831
14.2435
14.1761
14.0804
13.9349
-8.8131
-8.81318
-8.83401
-8.84922
-8.86113
-8.87605
-8.89534
-8.91834
-8.94495
-8.97565
-9.01131
-9.05274
-9.10085
-9.15647
-9.22084
-9.29511
-9.38073
-9.47916
-9.59236
-9.72223
-9.87093
-10.04
-10.2311
-10.4452
-10.6834
-10.9459
-11.2337
-11.5465
-11.8845
-12.247
-12.6331
-13.0405
-13.4668
-13.9067
-14.3541
-14.7995
-15.2318
-15.6368
-15.9997
-16.3021
-16.5275
-16.6598
-16.6847
-16.5862
-16.3504
-15.9673
-15.4337
-14.7535
-13.9403
-13.0159
-12.011
-10.9607
-9.90221
-8.87082
-7.89722
-7.0054
-6.21196
-5.52581
-4.95
-4.48134
-4.11093
-3.82428
-3.60689
-3.44453
-3.3225
-3.23161
-3.16772
-3.13199
-3.13475
-3.19016
-3.31451
-3.5293
-3.85764
-4.32832
-4.9649
-5.77473
-6.74782
-7.85905
-9.07592
-10.3632
-11.6921
-13.0397
-14.3912
-15.7337
-17.0593
-18.3598
-19.6283
-20.8589
-22.0436
-23.1767
-24.251
-25.2595
-26.1949
-27.0501
-27.8178
-28.4906
-29.0606
-29.5209
-29.8643
-30.0854
-30.1791
-30.1425
-29.9745
-29.6767