/*--------------------------------*- C++ -*----------------------------------*\
| =========                 |                                                 |
| \\      /  F ield         | OpenFOAM: The Open Source CFD Toolbox           |
|  \\    /   O peration     | Version:  2112                                  |
|   \\  /    A nd           | Website:  www.openfoam.com                      |
|    \\/     M anipulation  |                                                 |
\*---------------------------------------------------------------------------*/
FoamFile
{
    version     2.0;
    format      ascii;
    arch        "LSB;label=32;scalar=64";
    class       surfaceScalarField;
    location    "100";
    object      phi;
}
// * * * * * * * * * * * * * * * * * * * * * * * * * * * * * * * * * * * * * //

dimensions      [0 3 -1 0 0 0 0];

oriented        oriented;

internalField   nonuniform List<scalar> 
24170
(
3.05617e-06
1.32232e-07
2.91723e-06
1.38915e-07
2.79109e-06
1.26094e-07
2.67762e-06
1.13421e-07
2.57613e-06
1.01454e-07
2.48674e-06
8.93407e-08
2.40907e-06
7.76363e-08
2.3421e-06
6.69235e-08
2.28444e-06
5.76101e-08
2.23456e-06
4.98246e-08
2.19138e-06
4.31353e-08
2.15417e-06
3.71581e-08
2.12245e-06
3.16623e-08
2.09596e-06
2.64259e-08
2.07474e-06
2.11608e-08
2.05954e-06
1.51426e-08
2.05164e-06
7.82863e-09
-8.24747e-09
2.05981e-06
3.47719e-06
7.22865e-08
3.50809e-06
1.07989e-07
3.52398e-06
1.10168e-07
3.5274e-06
1.09957e-07
3.52111e-06
1.07708e-07
3.50784e-06
1.02572e-07
3.48979e-06
9.56521e-08
3.46854e-06
8.81247e-08
3.44553e-06
8.0584e-08
3.422e-06
7.33065e-08
3.3987e-06
6.63961e-08
3.37603e-06
5.97727e-08
3.35433e-06
5.33197e-08
3.33385e-06
4.68526e-08
3.31487e-06
4.00783e-08
3.29768e-06
3.22794e-08
3.28294e-06
2.25136e-08
7.42838e-09
3.2672e-06
3.68212e-06
5.26758e-08
3.6989e-06
9.11965e-08
3.71335e-06
9.56886e-08
3.72591e-06
9.73682e-08
3.73615e-06
9.74395e-08
3.74403e-06
9.46611e-08
3.74971e-06
8.99436e-08
3.75337e-06
8.44217e-08
3.75531e-06
7.86151e-08
3.75585e-06
7.27328e-08
3.75533e-06
6.68833e-08
3.75401e-06
6.10473e-08
3.75215e-06
5.51492e-08
3.74993e-06
4.90276e-08
3.74755e-06
4.2421e-08
3.74504e-06
3.47452e-08
3.74193e-06
2.55731e-08
1.31986e-08
3.73611e-06
3.93655e-06
4.15092e-08
3.94819e-06
7.95373e-08
3.95777e-06
8.60843e-08
3.96643e-06
8.86829e-08
3.97431e-06
8.95387e-08
3.98132e-06
8.76252e-08
3.9875e-06
8.37338e-08
3.99293e-06
7.89589e-08
3.99769e-06
7.38259e-08
4.00186e-06
6.85348e-08
4.00554e-06
6.31622e-08
4.00884e-06
5.77087e-08
4.01185e-06
5.21026e-08
4.01463e-06
4.62067e-08
4.01721e-06
3.98011e-08
4.01941e-06
3.25029e-08
4.0208e-06
2.41391e-08
1.39892e-08
4.01996e-06
4.21512e-06
3.35128e-08
4.22523e-06
6.94139e-08
4.23328e-06
7.80149e-08
4.24053e-06
8.14113e-08
4.2473e-06
8.27456e-08
4.25351e-06
8.13909e-08
4.25917e-06
7.80601e-08
4.26434e-06
7.37646e-08
4.2691e-06
6.90388e-08
4.27353e-06
6.40825e-08
4.27769e-06
5.89791e-08
4.28163e-06
5.37378e-08
4.2854e-06
4.8306e-08
4.28901e-06
4.25708e-08
4.2924e-06
3.63759e-08
4.29537e-06
2.95004e-08
4.29755e-06
2.19282e-08
1.34664e-08
4.29803e-06
4.51525e-06
2.73454e-08
4.52435e-06
6.03003e-08
4.53181e-06
7.05348e-08
4.53858e-06
7.46124e-08
4.545e-06
7.63128e-08
4.55095e-06
7.54143e-08
4.55643e-06
7.25568e-08
4.56151e-06
6.86667e-08
4.56625e-06
6.42718e-08
4.57073e-06
5.95796e-08
4.57499e-06
5.46874e-08
4.57908e-06
4.96177e-08
4.58302e-06
4.43429e-08
4.58678e-06
3.87828e-08
4.59027e-06
3.28466e-08
4.59331e-06
2.64355e-08
4.59557e-06
1.96288e-08
1.24771e-08
4.59652e-06
4.83761e-06
2.24477e-08
4.84578e-06
5.21193e-08
4.8529e-06
6.33992e-08
4.85947e-06
6.80152e-08
4.86577e-06
6.9995e-08
4.87169e-06
6.94814e-08
4.87718e-06
6.70439e-08
4.8823e-06
6.35234e-08
4.88712e-06
5.94329e-08
4.89169e-06
5.49877e-08
4.89606e-06
5.02985e-08
4.90025e-06
4.54046e-08
4.90427e-06
4.03057e-08
4.90807e-06
3.49586e-08
4.91156e-06
2.93299e-08
4.91456e-06
2.34062e-08
4.91684e-06
1.73175e-08
1.12163e-08
4.91808e-06
5.18353e-06
1.84943e-08
5.19081e-06
4.48243e-08
5.19763e-06
5.65575e-08
5.20406e-06
6.15563e-08
5.21031e-06
6.37251e-08
5.21625e-06
6.35209e-08
5.22182e-06
6.14519e-08
5.22705e-06
5.82691e-08
5.232e-06
5.44663e-08
5.2367e-06
5.02644e-08
5.24119e-06
4.5786e-08
5.24548e-06
4.10875e-08
5.24956e-06
3.61955e-08
5.25339e-06
3.11018e-08
5.25688e-06
2.5819e-08
5.25986e-06
2.03896e-08
5.26219e-06
1.49608e-08
9.7011e-09
5.26367e-06
5.55456e-06
1.52692e-08
5.56101e-06
3.83592e-08
5.56753e-06
5.00158e-08
5.57383e-06
5.5232e-08
5.58003e-06
5.75076e-08
5.586e-06
5.75367e-08
5.59165e-06
5.57835e-08
5.59699e-06
5.29068e-08
5.60206e-06
4.93743e-08
5.60689e-06
4.54149e-08
5.6115e-06
4.11573e-08
5.61589e-06
3.66773e-08
5.62004e-06
3.2022e-08
5.6239e-06
2.7216e-08
5.62739e-06
2.23024e-08
5.63039e-06
1.7357e-08
5.6328e-06
1.25198e-08
7.96582e-09
5.63453e-06
5.95243e-06
1.26161e-08
5.95813e-06
3.26342e-08
5.96434e-06
4.37859e-08
5.9705e-06
4.90453e-08
5.97664e-06
5.13488e-08
5.98261e-06
5.15385e-08
5.98833e-06
5.00494e-08
5.99376e-06
4.74486e-08
5.99894e-06
4.41707e-08
6.00388e-06
4.04512e-08
6.00859e-06
3.6426e-08
6.01305e-06
3.21847e-08
6.01726e-06
2.77919e-08
6.02115e-06
2.32972e-08
6.02466e-06
1.87629e-08
6.02771e-06
1.42804e-08
6.03023e-06
9.97361e-09
5.99222e-09
6.03218e-06
6.37901e-06
1.04133e-08
6.38406e-06
2.7568e-08
6.38994e-06
3.78838e-08
6.39595e-06
4.30087e-08
6.40202e-06
4.52665e-08
6.40799e-06
4.55468e-08
6.41374e-06
4.42702e-08
6.41925e-06
4.19155e-08
6.42452e-06
3.88804e-08
6.42955e-06
3.5401e-08
6.43433e-06
3.16182e-08
6.43886e-06
2.76307e-08
6.4431e-06
2.35213e-08
6.44702e-06
1.93494e-08
6.45056e-06
1.51938e-08
6.45367e-06
1.1143e-08
6.45631e-06
7.29749e-09
3.80637e-09
6.45849e-06
5.74243e-06
8.81615e-09
5.74624e-06
2.37321e-08
5.75096e-06
3.3145e-08
5.75592e-06
3.80214e-08
5.76098e-06
4.01911e-08
5.766e-06
4.05e-08
5.77089e-06
3.93595e-08
5.77559e-06
3.7189e-08
5.7801e-06
3.4351e-08
5.7844e-06
3.10742e-08
5.78849e-06
2.75014e-08
5.79236e-06
2.37482e-08
5.79597e-06
1.9882e-08
5.79931e-06
1.5994e-08
5.80233e-06
1.21439e-08
5.80502e-06
8.4356e-09
5.80736e-06
4.94136e-09
1.80195e-09
5.80935e-06
6.99974e-06
7.22866e-09
7.00368e-06
1.9767e-08
7.00877e-06
2.80319e-08
7.01429e-06
3.24842e-08
7.01999e-06
3.447e-08
7.02571e-06
3.47548e-08
7.03132e-06
3.37252e-08
7.03674e-06
3.17402e-08
7.04195e-06
2.91158e-08
7.04693e-06
2.60699e-08
7.05166e-06
2.27568e-08
7.05612e-06
1.92675e-08
7.06028e-06
1.57044e-08
7.06413e-06
1.2129e-08
7.06762e-06
8.6318e-09
7.07076e-06
5.27888e-09
7.07355e-06
2.14661e-09
-6.53643e-10
7.07599e-06
8.53241e-06
5.66475e-09
8.53642e-06
1.57312e-08
8.54182e-06
2.26058e-08
8.54786e-06
2.64265e-08
8.55419e-06
2.81114e-08
8.56063e-06
2.82952e-08
8.567e-06
2.73367e-08
8.57319e-06
2.55242e-08
8.57915e-06
2.31279e-08
8.58486e-06
2.0348e-08
8.59027e-06
1.73213e-08
8.59538e-06
1.41524e-08
8.60014e-06
1.09239e-08
8.60455e-06
7.71101e-09
8.60858e-06
4.58329e-09
8.61224e-06
1.61036e-09
8.61554e-06
-1.17185e-09
-3.62646e-09
8.61852e-06
1.04007e-05
4.12729e-09
1.04048e-05
1.16788e-08
1.04104e-05
1.69283e-08
1.04169e-05
1.98958e-08
1.04239e-05
2.11336e-08
1.0431e-05
2.11302e-08
1.04382e-05
2.01789e-08
1.04452e-05
1.85191e-08
1.04519e-05
1.63542e-08
1.04584e-05
1.38614e-08
1.04645e-05
1.11571e-08
1.04703e-05
8.34511e-09
1.04758e-05
5.48794e-09
1.04808e-05
2.66868e-09
1.04854e-05
-6.91949e-11
1.04897e-05
-2.6571e-09
1.04936e-05
-5.08754e-09
-7.22004e-09
1.04971e-05
1.26783e-05
2.61745e-09
1.26823e-05
7.61172e-09
1.26882e-05
1.10497e-08
1.26951e-05
1.29314e-08
1.27027e-05
1.35665e-08
1.27105e-05
1.32657e-08
1.27184e-05
1.22572e-08
1.27262e-05
1.07068e-08
1.27338e-05
8.7721e-09
1.27411e-05
6.57573e-09
1.2748e-05
4.22671e-09
1.27545e-05
1.79252e-09
1.27607e-05
-6.50927e-10
1.27664e-05
-3.06258e-09
1.27717e-05
-5.38412e-09
1.27765e-05
-7.59006e-09
1.27811e-05
-9.65698e-09
-1.14752e-08
1.27853e-05
1.54547e-05
1.11093e-09
1.54588e-05
3.48835e-09
1.54649e-05
4.94296e-09
1.54722e-05
5.53054e-09
1.54804e-05
5.39471e-09
1.5489e-05
4.69124e-09
1.54976e-05
3.54918e-09
1.55063e-05
2.07119e-09
1.55147e-05
3.49847e-10
1.55228e-05
-1.53339e-09
1.55305e-05
-3.51085e-09
1.55378e-05
-5.52635e-09
1.55446e-05
-7.53622e-09
1.55511e-05
-9.50231e-09
1.5557e-05
-1.13963e-08
1.55626e-05
-1.31903e-08
1.55678e-05
-1.48858e-08
-1.6364e-08
1.55727e-05
1.88392e-05
-4.40369e-10
1.88435e-05
-8.55803e-10
1.885e-05
-1.57169e-09
1.8858e-05
-2.4682e-09
1.88669e-05
-3.51882e-09
1.88762e-05
-4.71656e-09
1.88858e-05
-6.04452e-09
1.88953e-05
-7.47359e-09
1.89046e-05
-8.97699e-09
1.89136e-05
-1.05231e-08
1.89222e-05
-1.20888e-08
1.89303e-05
-1.36448e-08
1.89379e-05
-1.5174e-08
1.8945e-05
-1.66528e-08
1.89516e-05
-1.80713e-08
1.89578e-05
-1.94107e-08
1.89636e-05
-2.06797e-08
-2.17723e-08
1.8969e-05
2.29651e-05
-2.17819e-09
2.297e-05
-5.83114e-09
2.29774e-05
-9.01858e-09
2.29865e-05
-1.15793e-08
2.29966e-05
-1.36344e-08
2.30072e-05
-1.5359e-08
2.3018e-05
-1.68629e-08
2.30287e-05
-1.82026e-08
2.30391e-05
-1.94236e-08
2.30491e-05
-2.05561e-08
2.30586e-05
-2.16244e-08
2.30676e-05
-2.26342e-08
2.3076e-05
-2.35925e-08
2.30838e-05
-2.44961e-08
2.3091e-05
-2.53484e-08
2.30977e-05
-2.61447e-08
2.31039e-05
-2.6895e-08
-2.752e-08
2.31096e-05
1.68121e-05
-3.60006e-09
1.68161e-05
-9.83983e-09
1.68219e-05
-1.48559e-08
1.68288e-05
-1.85135e-08
1.68363e-05
-2.11576e-08
1.68441e-05
-2.31496e-08
1.68518e-05
-2.46774e-08
1.68595e-05
-2.58646e-08
1.68668e-05
-2.67995e-08
1.68738e-05
-2.75753e-08
1.68804e-05
-2.82279e-08
1.68866e-05
-2.88069e-08
1.68923e-05
-2.93114e-08
1.68975e-05
-2.97758e-08
1.69023e-05
-3.01839e-08
1.69067e-05
-3.0565e-08
1.69108e-05
-3.09009e-08
-3.11564e-08
1.69144e-05
1.46361e-05
-5.11841e-09
1.46402e-05
-1.40239e-08
1.4646e-05
-2.06857e-08
1.46526e-05
-2.51456e-08
1.46596e-05
-2.81445e-08
1.46667e-05
-3.02437e-08
1.46736e-05
-3.16826e-08
1.46804e-05
-3.26233e-08
1.46868e-05
-3.32302e-08
1.46928e-05
-3.36165e-08
1.46984e-05
-3.38634e-08
1.47036e-05
-3.40107e-08
1.47083e-05
-3.40971e-08
1.47127e-05
-3.41357e-08
1.47166e-05
-3.41482e-08
1.47202e-05
-3.41318e-08
1.47234e-05
-3.41055e-08
-3.40073e-08
1.47262e-05
1.27419e-05
-6.8948e-09
1.27465e-05
-1.86939e-08
1.27526e-05
-2.67746e-08
1.27591e-05
-3.16828e-08
1.27658e-05
-3.48127e-08
1.27724e-05
-3.68773e-08
1.27788e-05
-3.81113e-08
1.27848e-05
-3.87291e-08
1.27905e-05
-3.89562e-08
1.27958e-05
-3.89423e-08
1.28007e-05
-3.87757e-08
1.28052e-05
-3.85076e-08
1.28093e-05
-3.81885e-08
1.28129e-05
-3.78334e-08
1.28162e-05
-3.74742e-08
1.28192e-05
-3.71017e-08
1.28218e-05
-3.67403e-08
-3.63345e-08
1.28241e-05
1.10932e-05
-9.12379e-09
1.10986e-05
-2.41286e-08
1.1105e-05
-3.32304e-08
1.11115e-05
-3.81938e-08
1.11179e-05
-4.1263e-08
1.11242e-05
-4.31729e-08
1.11301e-05
-4.40933e-08
1.11357e-05
-4.43213e-08
1.11409e-05
-4.41421e-08
1.11456e-05
-4.37193e-08
1.115e-05
-4.31425e-08
1.11539e-05
-4.24787e-08
1.11575e-05
-4.17683e-08
1.11607e-05
-4.10545e-08
1.11635e-05
-4.03408e-08
1.1166e-05
-3.96535e-08
1.11683e-05
-3.89785e-08
-3.8301e-08
1.11702e-05
9.65815e-06
-1.20614e-08
9.66457e-06
-3.05701e-08
9.67137e-06
-4.00475e-08
9.67784e-06
-4.46823e-08
9.68412e-06
-4.7567e-08
9.69014e-06
-4.92054e-08
9.69575e-06
-4.97237e-08
9.70093e-06
-4.952e-08
9.70569e-06
-4.89215e-08
9.71004e-06
-4.80925e-08
9.714e-06
-4.71158e-08
9.71757e-06
-4.6067e-08
9.72077e-06
-4.49931e-08
9.72363e-06
-4.39331e-08
9.72617e-06
-4.29042e-08
9.72842e-06
-4.19168e-08
9.7304e-06
-4.09697e-08
-4.004e-08
9.73213e-06
8.40931e-06
-1.60213e-08
8.41697e-06
-3.8254e-08
8.42407e-06
-4.71608e-08
8.43054e-06
-5.11725e-08
8.43677e-06
-5.38122e-08
8.44264e-06
-5.50919e-08
8.44804e-06
-5.51402e-08
8.45299e-06
-5.44783e-08
8.4575e-06
-5.3453e-08
8.46161e-06
-5.22099e-08
8.46531e-06
-5.08372e-08
8.46864e-06
-4.94102e-08
8.47162e-06
-4.79834e-08
8.47426e-06
-4.65936e-08
8.4766e-06
-4.52624e-08
8.47867e-06
-4.39976e-08
8.48049e-06
-4.28027e-08
-4.1631e-08
8.48207e-06
7.32268e-06
-2.14192e-08
7.33182e-06
-4.74148e-08
7.33935e-06
-5.47067e-08
7.34606e-06
-5.78946e-08
7.35246e-06
-6.02248e-08
7.35839e-06
-6.10433e-08
7.3638e-06
-6.05647e-08
7.36873e-06
-5.94149e-08
7.3732e-06
-5.79392e-08
7.37725e-06
-5.62662e-08
7.38087e-06
-5.44773e-08
7.38411e-06
-5.26619e-08
7.38699e-06
-5.0869e-08
7.38952e-06
-4.91425e-08
7.39175e-06
-4.75057e-08
7.39372e-06
-4.59699e-08
7.39544e-06
-4.45369e-08
-4.31597e-08
7.39695e-06
6.37805e-06
-2.94103e-08
6.389e-06
-5.83754e-08
6.3977e-06
-6.34179e-08
6.40548e-06
-6.56976e-08
6.41273e-06
-6.74829e-08
6.41929e-06
-6.76188e-08
6.42519e-06
-6.64766e-08
6.4305e-06
-6.47379e-08
6.43527e-06
-6.27216e-08
6.43952e-06
-6.05275e-08
6.44328e-06
-5.82498e-08
6.44657e-06
-5.59593e-08
6.44943e-06
-5.37354e-08
6.45188e-06
-5.16021e-08
6.45396e-06
-4.95941e-08
6.45572e-06
-4.77473e-08
6.45722e-06
-4.60394e-08
-4.44297e-08
6.45846e-06
5.56072e-06
-4.46661e-08
5.5758e-06
-7.34777e-08
5.58833e-06
-7.59624e-08
5.59965e-06
-7.70424e-08
5.60967e-06
-7.75211e-08
5.61831e-06
-7.62714e-08
5.62569e-06
-7.387e-08
5.63193e-06
-7.09882e-08
5.6371e-06
-6.79031e-08
5.64127e-06
-6.4713e-08
5.6445e-06
-6.14986e-08
5.64688e-06
-5.83475e-08
5.64849e-06
-5.53472e-08
5.6494e-06
-5.25194e-08
5.64969e-06
-4.98957e-08
5.6495e-06
-4.75565e-08
5.64892e-06
-4.54794e-08
-4.38337e-08
5.64831e-06
4.87549e-06
-9.25515e-08
4.90608e-06
-1.04093e-07
4.92713e-06
-9.70311e-08
4.94098e-06
-9.09206e-08
4.9488e-06
-8.53645e-08
4.95166e-06
-7.91443e-08
4.95047e-06
-7.27003e-08
4.94601e-06
-6.65422e-08
4.93891e-06
-6.082e-08
4.92972e-06
-5.55423e-08
4.9189e-06
-5.06915e-08
4.90682e-06
-4.62791e-08
4.89383e-06
-4.23619e-08
4.88031e-06
-3.90095e-08
4.8666e-06
-3.61996e-08
4.85288e-06
-3.38385e-08
4.83925e-06
-3.18661e-08
-3.07065e-08
4.8261e-06
4.11012e-06
4.00603e-06
3.909e-06
3.81807e-06
3.73271e-06
3.65356e-06
3.58086e-06
3.51431e-06
3.45349e-06
3.39795e-06
3.34725e-06
3.30097e-06
3.25861e-06
3.2196e-06
3.1834e-06
3.14956e-06
3.11768e-06
3.08698e-06
-3.5309e-08
3.69129e-08
-7.49581e-08
4.1924e-08
-1.33445e-07
6.01204e-08
-1.98743e-07
6.67565e-08
-2.65529e-07
6.79197e-08
-3.30076e-07
6.57431e-08
-3.91193e-07
6.20175e-08
-4.47981e-07
5.78857e-08
-5.0127e-07
5.40803e-08
-5.51254e-07
5.10135e-08
-5.99602e-07
4.90165e-08
-6.47093e-07
4.84515e-08
-6.95861e-07
4.92919e-08
-7.46525e-07
5.1562e-08
-8.01581e-07
5.54047e-08
-8.61138e-07
6.04205e-08
-9.2736e-07
6.63463e-08
-9.99194e-07
7.27044e-08
-1.07796e-06
7.88285e-08
-1.16121e-06
8.41796e-08
-1.24945e-06
8.82121e-08
-1.33912e-06
9.06766e-08
-1.43042e-06
9.13367e-08
-1.51954e-06
9.02594e-08
-1.60689e-06
8.741e-08
-1.68862e-06
8.29192e-08
-1.76553e-06
7.68815e-08
-1.83415e-06
6.9841e-08
-1.89617e-06
6.19611e-08
-1.94848e-06
5.35074e-08
-1.99328e-06
4.44693e-08
-2.02751e-06
3.52974e-08
-2.05394e-06
2.59409e-08
-2.06976e-06
1.66923e-08
-2.0785e-06
7.85203e-09
-2.0775e-06
-3.20127e-10
-2.07008e-06
-8.50933e-09
-2.05252e-06
-1.69444e-08
-2.02755e-06
-2.6122e-08
-1.99086e-06
-3.60402e-08
-1.94482e-06
-4.72176e-08
-1.88501e-06
-5.91818e-08
-1.81398e-06
-7.22896e-08
-1.72657e-06
-8.69077e-08
-1.62525e-06
-1.02801e-07
-1.50715e-06
-1.17855e-07
-1.3751e-06
-1.33766e-07
-1.22383e-06
-1.51211e-07
-1.06022e-06
-1.65777e-07
-8.81688e-07
-1.78574e-07
-6.80485e-07
-2.03683e-07
-4.375e-07
-2.43185e-07
-1.71342e-07
-2.68213e-07
1.00833e-07
-2.72844e-07
3.67593e-07
-2.68799e-07
6.26031e-07
-2.59656e-07
8.70706e-07
-2.46625e-07
1.099e-06
-2.29841e-07
1.30646e-06
-2.09287e-07
1.48852e-06
-1.83742e-07
1.63639e-06
-1.49538e-07
1.73664e-06
-1.01906e-07
1.77891e-06
-4.37405e-08
1.76015e-06
1.72084e-08
1.68309e-06
7.5772e-08
1.55466e-06
1.26922e-07
1.3871e-06
1.66307e-07
1.19404e-06
1.91437e-07
9.90589e-07
2.02014e-07
7.92954e-07
1.95677e-07
6.11862e-07
1.79256e-07
4.27873e-07
1.81133e-07
2.19133e-07
2.06158e-07
4.08048e-08
1.75638e-07
-3.08125e-08
6.93772e-08
-3.10855e-08
-7.98902e-10
-2.33952e-08
-9.37712e-09
1.60807e-08
-3.97143e-08
1.21565e-07
-1.07191e-07
2.52397e-07
-1.30773e-07
3.33411e-07
-8.32142e-08
3.75254e-07
-4.23995e-08
2.71508e-07
9.8562e-08
1.902e-07
7.79141e-08
2.98933e-09
1.8231e-07
-4.64473e-07
4.64525e-07
-1.10307e-06
6.35513e-07
-1.80632e-06
7.0053e-07
-2.50101e-06
6.92323e-07
-3.14419e-06
6.40876e-07
-3.71735e-06
5.70902e-07
-4.21672e-06
4.97e-07
-4.64618e-06
4.27071e-07
-5.0129e-06
3.64167e-07
-5.32482e-06
3.09351e-07
-5.58925e-06
2.61672e-07
-5.81267e-06
2.20647e-07
-6.00041e-06
1.84748e-07
-6.15629e-06
1.52878e-07
-6.28367e-06
1.24136e-07
-6.38498e-06
9.80269e-08
-6.46269e-06
7.39877e-08
-6.51836e-06
5.20035e-08
-6.55417e-06
3.17237e-08
-6.57174e-06
1.40891e-08
-6.57437e-06
-8.35615e-10
-6.5633e-06
-1.34834e-08
-6.54011e-06
-2.54055e-08
-6.50492e-06
-3.63495e-08
-6.4588e-06
-4.71349e-08
-6.40166e-06
-5.72606e-08
-6.33509e-06
-6.66199e-08
-6.25951e-06
-7.49455e-08
-6.17567e-06
-8.31814e-08
-6.08367e-06
-9.08141e-08
-5.98431e-06
-9.81818e-08
-5.87792e-06
-1.04845e-07
-5.76542e-06
-1.1098e-07
-5.64761e-06
-1.16115e-07
-5.52586e-06
-1.20102e-07
-5.39996e-06
-1.24227e-07
-5.27087e-06
-1.27374e-07
-5.13942e-06
-1.29771e-07
-5.00599e-06
-1.31608e-07
-4.87142e-06
-1.32897e-07
-4.73643e-06
-1.33225e-07
-4.60192e-06
-1.33052e-07
-4.4683e-06
-1.32124e-07
-4.33666e-06
-1.30554e-07
-4.20743e-06
-1.28153e-07
-4.08165e-06
-1.25158e-07
-3.95966e-06
-1.21392e-07
-3.84229e-06
-1.17204e-07
-3.72964e-06
-1.12526e-07
-3.62211e-06
-1.07731e-07
-3.51961e-06
-1.0273e-07
-3.42238e-06
-9.7647e-08
-3.32991e-06
-9.28298e-08
-3.24174e-06
-8.85272e-08
-3.15728e-06
-8.4641e-08
-3.0759e-06
-8.14071e-08
-2.99694e-06
-7.8711e-08
-2.91978e-06
-7.67443e-08
-2.84346e-06
-7.5681e-08
-2.76702e-06
-7.56733e-08
-2.68934e-06
-7.67389e-08
-2.60914e-06
-7.91727e-08
-2.52507e-06
-8.28893e-08
-2.43595e-06
-8.79007e-08
-2.34042e-06
-9.41532e-08
-2.2378e-06
-1.01221e-07
-2.12743e-06
-1.08851e-07
-2.00896e-06
-1.16929e-07
-1.88185e-06
-1.25438e-07
-1.746e-06
-1.3418e-07
-1.60177e-06
-1.42426e-07
-1.44988e-06
-1.50095e-07
-1.2908e-06
-1.57153e-07
-1.12491e-06
-1.63961e-07
-9.53017e-07
-1.69774e-07
-7.77246e-07
-1.73605e-07
-5.9943e-07
-1.75417e-07
-4.19437e-07
-1.77584e-07
-2.28862e-07
-1.8795e-07
-1.78996e-08
-2.08514e-07
2.05495e-07
-2.21105e-07
4.26901e-07
-2.19453e-07
6.4147e-07
-2.12695e-07
8.47034e-07
-2.0396e-07
1.04223e-06
-1.93636e-07
1.2262e-06
-1.82652e-07
1.39866e-06
-1.7116e-07
1.55899e-06
-1.59239e-07
1.70632e-06
-1.46236e-07
1.83976e-06
-1.32539e-07
1.95822e-06
-1.17579e-07
2.05876e-06
-9.98653e-08
2.13651e-06
-7.70712e-08
2.16952e-06
-3.24302e-08
5.93406e-08
2.11081e-06
-6.03044e-08
9.85949e-08
-1.45811e-07
1.29269e-07
-2.16222e-07
1.3181e-07
-2.75379e-07
1.27123e-07
-3.27012e-07
1.20483e-07
-3.74416e-07
1.14153e-07
-4.20457e-07
1.08841e-07
-4.66632e-07
1.04982e-07
-5.14754e-07
1.02885e-07
-5.65417e-07
1.02542e-07
-6.19593e-07
1.03796e-07
-6.76785e-07
1.06441e-07
-7.37248e-07
1.10252e-07
-8.00042e-07
1.15071e-07
-8.65045e-07
1.20765e-07
-9.31293e-07
1.27309e-07
-9.9906e-07
1.3432e-07
-1.06684e-06
1.41058e-07
-1.13476e-06
1.46872e-07
-1.20106e-06
1.51068e-07
-1.26582e-06
1.53067e-07
-1.32722e-06
1.52649e-07
-1.38558e-06
1.49809e-07
-1.43937e-06
1.44723e-07
-1.48947e-06
1.3763e-07
-1.53467e-06
1.28744e-07
-1.57612e-06
1.18438e-07
-1.61288e-06
1.07281e-07
-1.64638e-06
9.55439e-08
-1.67559e-06
8.32968e-08
-1.70175e-06
7.06403e-08
-1.72378e-06
5.7832e-08
-1.74256e-06
4.46152e-08
-1.75631e-06
3.07864e-08
-1.76489e-06
1.61566e-08
-1.76535e-06
3.34148e-10
-1.75716e-06
-1.70555e-08
-1.73783e-06
-3.61589e-08
-1.70718e-06
-5.71401e-08
-1.6631e-06
-8.00289e-08
-1.60561e-06
-1.05081e-07
-1.53254e-06
-1.32218e-07
-1.44402e-06
-1.61213e-07
-1.33906e-06
-1.91955e-07
-1.21783e-06
-2.24529e-07
-1.07816e-06
-2.57784e-07
-9.21733e-07
-2.90787e-07
-7.49251e-07
-3.24094e-07
-5.5901e-07
-3.56641e-07
-3.5136e-07
-3.86635e-07
-1.41204e-07
-4.14401e-07
5.52198e-08
-4.39986e-07
2.44807e-07
-4.58422e-07
4.38357e-07
-4.66947e-07
6.34983e-07
-4.66224e-07
8.31243e-07
-4.56696e-07
1.02205e-06
-4.38373e-07
1.20341e-06
-4.12151e-07
1.37177e-06
-3.78679e-07
1.52525e-06
-3.38266e-07
1.66542e-06
-2.90778e-07
1.79806e-06
-2.35637e-07
1.92353e-06
-1.70258e-07
2.03122e-06
-9.15359e-08
2.10573e-06
3.10716e-10
2.13122e-06
1.00484e-07
2.09618e-06
2.00463e-07
1.99782e-06
2.88908e-07
1.84535e-06
3.5358e-07
1.64953e-06
3.90534e-07
1.41775e-06
4.10091e-07
1.186e-06
4.11859e-07
1.01479e-06
3.76272e-07
8.90875e-07
2.98436e-07
7.50767e-07
2.08429e-07
6.31502e-07
1.17608e-07
6.18493e-07
2.94827e-09
7.25324e-07
-1.4699e-07
8.47635e-07
-2.30085e-07
9.22009e-07
-2.05538e-07
8.43984e-07
-6.22514e-09
5.43823e-07
2.56782e-07
-5.59705e-08
6.97043e-07
-1.02019e-06
1.04112e-06
-2.06357e-06
1.22452e-06
-2.92132e-06
1.32106e-06
-3.60175e-06
1.31453e-06
-4.13478e-06
1.23218e-06
-4.55044e-06
1.10652e-06
-4.87722e-06
9.66272e-07
-5.13742e-06
8.29493e-07
-5.34816e-06
7.06053e-07
-5.52186e-06
5.98872e-07
-5.66746e-06
5.07798e-07
-5.79071e-06
4.30428e-07
-5.89571e-06
3.64453e-07
-5.98517e-06
3.07661e-07
-6.06098e-06
2.58069e-07
-6.12483e-06
2.14018e-07
-6.17763e-06
1.74203e-07
-6.22051e-06
1.37857e-07
-6.2541e-06
1.04457e-07
-6.27911e-06
7.35271e-08
-6.29524e-06
4.45436e-08
-6.30173e-06
1.72946e-08
-6.29697e-06
-8.26596e-09
-6.28044e-06
-3.231e-08
-6.25207e-06
-5.53525e-08
-6.21258e-06
-7.70354e-08
-6.16267e-06
-9.7636e-08
-6.10291e-06
-1.17298e-07
-6.03364e-06
-1.35711e-07
-5.9556e-06
-1.52584e-07
-5.86945e-06
-1.68603e-07
-5.77585e-06
-1.83515e-07
-5.67565e-06
-1.97265e-07
-5.5694e-06
-2.09864e-07
-5.45783e-06
-2.21214e-07
-5.34161e-06
-2.30933e-07
-5.22165e-06
-2.38655e-07
-5.09844e-06
-2.45985e-07
-4.97241e-06
-2.51966e-07
-4.84388e-06
-2.56795e-07
-4.71347e-06
-2.60507e-07
-4.58193e-06
-2.62917e-07
-4.44974e-06
-2.63988e-07
-4.31747e-06
-2.63964e-07
-4.18584e-06
-2.6257e-07
-4.05556e-06
-2.59803e-07
-3.92726e-06
-2.55619e-07
-3.80165e-06
-2.50142e-07
-3.6793e-06
-2.4331e-07
-3.56086e-06
-2.35415e-07
-3.44684e-06
-2.2649e-07
-3.33774e-06
-2.16959e-07
-3.23372e-06
-2.06973e-07
-3.13485e-06
-1.96826e-07
-3.04099e-06
-1.8702e-07
-2.95183e-06
-1.77971e-07
-2.86683e-06
-1.69788e-07
-2.78543e-06
-1.62805e-07
-2.70682e-06
-1.57117e-07
-2.63018e-06
-1.53011e-07
-2.55435e-06
-1.50979e-07
-2.47789e-06
-1.51478e-07
-2.39958e-06
-1.54246e-07
-2.31809e-06
-1.59774e-07
-2.23203e-06
-1.67929e-07
-2.13989e-06
-1.78965e-07
-2.04027e-06
-1.92567e-07
-1.93218e-06
-2.08084e-07
-1.8145e-06
-2.25184e-07
-1.68669e-06
-2.43375e-07
-1.54841e-06
-2.62238e-07
-1.39989e-06
-2.81229e-07
-1.24153e-06
-2.99188e-07
-1.07377e-06
-3.16283e-07
-8.97245e-07
-3.31968e-07
-7.12761e-07
-3.46748e-07
-5.20412e-07
-3.60274e-07
-3.18573e-07
-3.73636e-07
-1.02988e-07
-3.89146e-07
1.25953e-07
-4.04895e-07
3.58638e-07
-4.19069e-07
5.82923e-07
-4.31406e-07
7.98972e-07
-4.35749e-07
1.01108e-06
-4.30279e-07
1.21855e-06
-4.18872e-07
1.4196e-06
-4.03845e-07
1.61306e-06
-3.85946e-07
1.79766e-06
-3.66222e-07
1.97236e-06
-3.44854e-07
2.13618e-06
-3.22156e-07
2.28846e-06
-2.9763e-07
2.4282e-06
-2.71484e-07
2.55415e-06
-2.42768e-07
2.66446e-06
-2.09517e-07
2.75454e-06
-1.66531e-07
2.82476e-06
-1.02077e-07
1.36044e-08
2.87116e-06
-4.46048e-08
1.44218e-07
-1.05287e-07
1.91227e-07
-1.49858e-07
1.77231e-07
-1.83743e-07
1.61734e-07
-2.11508e-07
1.48798e-07
-2.36039e-07
1.39263e-07
-2.59962e-07
1.33199e-07
-2.84972e-07
1.30524e-07
-3.12761e-07
1.31075e-07
-3.44234e-07
1.3453e-07
-3.80494e-07
1.40425e-07
-4.21726e-07
1.48182e-07
-4.68298e-07
1.57152e-07
-5.19452e-07
1.66716e-07
-5.74755e-07
1.76324e-07
-6.32601e-07
1.85609e-07
-6.92224e-07
1.94104e-07
-7.52066e-07
2.01302e-07
-8.11886e-07
2.06778e-07
-8.70552e-07
2.10111e-07
-9.28445e-07
2.11015e-07
-9.84877e-07
2.09441e-07
-1.04048e-06
2.05464e-07
-1.09461e-06
1.99225e-07
-1.14786e-06
1.90941e-07
-1.19952e-06
1.80777e-07
-1.25012e-06
1.69097e-07
-1.29876e-06
1.56295e-07
-1.34566e-06
1.42508e-07
-1.38971e-06
1.27687e-07
-1.43084e-06
1.11814e-07
-1.46753e-06
9.48246e-08
-1.49936e-06
7.64412e-08
-1.52473e-06
5.63729e-08
-1.54297e-06
3.43183e-08
-1.55248e-06
9.96983e-09
-1.55268e-06
-1.6983e-08
-1.54203e-06
-4.67279e-08
-1.51995e-06
-7.93641e-08
-1.48504e-06
-1.14901e-07
-1.43694e-06
-1.53346e-07
-1.3746e-06
-1.94571e-07
-1.29776e-06
-2.38248e-07
-1.20582e-06
-2.84006e-07
-1.09915e-06
-3.31458e-07
-9.77335e-07
-3.79827e-07
-8.40283e-07
-4.28181e-07
-6.89472e-07
-4.75223e-07
-5.2718e-07
-5.19323e-07
-3.54456e-07
-5.59711e-07
-1.74953e-07
-5.94311e-07
6.91908e-09
-6.22231e-07
1.90221e-07
-6.42183e-07
3.75514e-07
-6.52721e-07
5.61974e-07
-6.53261e-07
7.47844e-07
-6.43178e-07
9.30606e-07
-6.21813e-07
1.10715e-06
-5.8941e-07
1.27365e-06
-5.45906e-07
1.42702e-06
-4.92385e-07
1.56583e-06
-4.30317e-07
1.69009e-06
-3.60644e-07
1.8021e-06
-2.83005e-07
1.90549e-06
-1.95674e-07
2.00117e-06
-9.61037e-08
2.08451e-06
1.64039e-08
2.14427e-06
1.39983e-07
2.16558e-06
2.66878e-07
2.13603e-06
3.82421e-07
2.05228e-06
4.7357e-07
1.92815e-06
5.33484e-07
1.78812e-06
5.51156e-07
1.64963e-06
5.14056e-07
1.51373e-06
4.33569e-07
1.38713e-06
3.34209e-07
1.30978e-06
1.94248e-07
1.32143e-06
-9.32803e-09
1.3866e-06
-2.12687e-07
1.44673e-06
-2.90835e-07
1.15394e-06
8.6698e-08
3.90113e-07
7.57089e-07
-7.40438e-07
1.38688e-06
-1.78537e-06
1.74145e-06
-2.6179e-06
1.87305e-06
-3.25551e-06
1.8614e-06
-3.70793e-06
1.77261e-06
-4.02675e-06
1.63237e-06
-4.26159e-06
1.46595e-06
-4.45031e-06
1.29429e-06
-4.61666e-06
1.13158e-06
-4.77213e-06
9.83814e-07
-4.92045e-06
8.5311e-07
-5.06175e-06
7.38758e-07
-5.19477e-06
6.39294e-07
-5.31819e-06
5.52155e-07
-5.43075e-06
4.75249e-07
-5.5319e-06
4.06842e-07
-5.62097e-06
3.45108e-07
-5.69763e-06
2.88443e-07
-5.76162e-06
2.35898e-07
-5.8132e-06
1.8685e-07
-5.85228e-06
1.40909e-07
-5.87917e-06
9.74782e-08
-5.89364e-06
5.62911e-08
-5.89601e-06
1.69696e-08
-5.88613e-06
-2.02304e-08
-5.86462e-06
-5.56646e-08
-5.83174e-06
-8.93971e-08
-5.78834e-06
-1.21373e-07
-5.7348e-06
-1.51535e-07
-5.67188e-06
-1.80409e-07
-5.59992e-06
-2.07411e-07
-5.51965e-06
-2.325e-07
-5.4316e-06
-2.55953e-07
-5.33673e-06
-2.77628e-07
-5.23554e-06
-2.9747e-07
-5.1287e-06
-3.15681e-07
-5.01708e-06
-3.3169e-07
-4.90128e-06
-3.45577e-07
-4.78189e-06
-3.56822e-07
-4.65991e-06
-3.66727e-07
-4.53545e-06
-3.75173e-07
-4.40943e-06
-3.81505e-07
-4.28245e-06
-3.86219e-07
-4.15485e-06
-3.89208e-07
-4.02704e-06
-3.90619e-07
-3.89957e-06
-3.90271e-07
-3.773e-06
-3.8818e-07
-3.64776e-06
-3.8415e-07
-3.52445e-06
-3.78288e-07
-3.40349e-06
-3.70548e-07
-3.28549e-06
-3.61016e-07
-3.1709e-06
-3.49803e-07
-3.06033e-06
-3.37097e-07
-2.95419e-06
-3.23211e-07
-2.85288e-06
-3.08558e-07
-2.75654e-06
-2.93463e-07
-2.66544e-06
-2.78476e-07
-2.57946e-06
-2.64245e-07
-2.49833e-06
-2.51136e-07
-2.42154e-06
-2.39665e-07
-2.34818e-06
-2.30427e-07
-2.27707e-06
-2.23932e-07
-2.20673e-06
-2.21033e-07
-2.13566e-06
-2.22144e-07
-2.06224e-06
-2.27216e-07
-1.98478e-06
-2.36664e-07
-1.90154e-06
-2.50579e-07
-1.81086e-06
-2.68962e-07
-1.71142e-06
-2.91306e-07
-1.602e-06
-3.16729e-07
-1.48151e-06
-3.44882e-07
-1.34934e-06
-3.74674e-07
-1.20538e-06
-4.05328e-07
-1.04971e-06
-4.35954e-07
-8.82779e-07
-4.65168e-07
-7.04897e-07
-4.93128e-07
-5.165e-07
-5.19327e-07
-3.18066e-07
-5.44111e-07
-1.08375e-07
-5.68937e-07
1.11707e-07
-5.92753e-07
3.37215e-07
-6.13782e-07
5.63867e-07
-6.30744e-07
7.88456e-07
-6.42915e-07
1.00743e-06
-6.49679e-07
1.22045e-06
-6.48106e-07
1.42847e-06
-6.37654e-07
1.63076e-06
-6.20533e-07
1.82633e-06
-5.98829e-07
2.01431e-06
-5.73359e-07
2.19371e-06
-5.45099e-07
2.3638e-06
-5.14429e-07
2.52379e-06
-4.81692e-07
2.67314e-06
-4.46543e-07
2.81089e-06
-4.08854e-07
2.93597e-06
-3.67493e-07
3.04668e-06
-3.19934e-07
3.141e-06
-2.6058e-07
3.21888e-06
-1.79677e-07
-5.6275e-08
3.28908e-06
-3.10892e-08
1.76086e-07
-6.25922e-08
2.23576e-07
-8.44028e-08
1.99573e-07
-1.00927e-07
1.78694e-07
-1.15077e-07
1.63258e-07
-1.28347e-07
1.52857e-07
-1.42027e-07
1.47134e-07
-1.57011e-07
1.45804e-07
-1.74262e-07
1.48548e-07
-1.94373e-07
1.54937e-07
-2.18154e-07
1.64418e-07
-2.46007e-07
1.76334e-07
-2.78582e-07
1.89921e-07
-3.15926e-07
2.0436e-07
-3.58259e-07
2.18818e-07
-4.04879e-07
2.3252e-07
-4.55403e-07
2.44737e-07
-5.08702e-07
2.5487e-07
-5.64354e-07
2.62489e-07
-6.2133e-07
2.67336e-07
-6.79615e-07
2.69331e-07
-7.38479e-07
2.68548e-07
-7.98119e-07
2.65125e-07
-8.57894e-07
2.59248e-07
-9.18042e-07
2.51116e-07
-9.77944e-07
2.40929e-07
-1.03777e-06
2.28955e-07
-1.09659e-06
2.15378e-07
-1.15427e-06
2.00223e-07
-1.20972e-06
1.83401e-07
-1.26265e-06
1.64777e-07
-1.31171e-06
1.44132e-07
-1.3564e-06
1.21155e-07
-1.39534e-06
9.55051e-08
-1.42785e-06
6.68204e-08
-1.45251e-06
3.47733e-08
-1.46866e-06
-8.77603e-10
-1.47496e-06
-4.03155e-08
-1.47076e-06
-8.3627e-08
-1.45482e-06
-1.30779e-07
-1.42662e-06
-1.81636e-07
-1.38526e-06
-2.35925e-07
-1.3304e-06
-2.93233e-07
-1.26147e-06
-3.53002e-07
-1.17864e-06
-4.14489e-07
-1.0817e-06
-4.76932e-07
-9.70758e-07
-5.39392e-07
-8.4626e-07
-5.99972e-07
-7.08381e-07
-6.57551e-07
-5.57019e-07
-7.11421e-07
-3.9279e-07
-7.58952e-07
-2.18253e-07
-7.97195e-07
-3.67211e-08
-8.24212e-07
1.49232e-07
-8.39189e-07
3.37011e-07
-8.41614e-07
5.24297e-07
-8.31064e-07
7.10008e-07
-8.08157e-07
8.9216e-07
-7.72216e-07
1.06785e-06
-7.22253e-07
1.23357e-06
-6.58764e-07
1.38604e-06
-5.83428e-07
1.52265e-06
-4.97875e-07
1.64254e-06
-4.03488e-07
1.74734e-06
-3.01075e-07
1.84066e-06
-1.90004e-07
1.92565e-06
-6.91968e-08
2.00347e-06
6.15559e-08
2.06923e-06
2.00478e-07
2.11119e-06
3.39814e-07
2.11806e-06
4.66013e-07
2.08878e-06
5.6209e-07
2.03106e-06
6.08183e-07
1.94936e-06
5.94971e-07
1.83798e-06
5.44179e-07
1.71559e-06
4.55718e-07
1.64938e-06
2.5958e-07
1.65561e-06
-1.63141e-08
1.59093e-06
-1.4877e-07
1.06437e-06
2.35101e-07
1.24392e-08
1.13823e-06
-1.11372e-06
1.88292e-06
-1.98182e-06
2.25464e-06
-2.59912e-06
2.35835e-06
-3.03251e-06
2.30594e-06
-3.34201e-06
2.1703e-06
-3.56762e-06
1.99752e-06
-3.74664e-06
1.81061e-06
-3.90546e-06
1.62402e-06
-4.0587e-06
1.44679e-06
-4.21135e-06
1.28356e-06
-4.36362e-06
1.13532e-06
-4.51318e-06
1.00175e-06
-4.65718e-06
8.81721e-07
-4.79296e-06
7.73895e-07
-4.91857e-06
6.76471e-07
-5.03267e-06
5.87895e-07
-5.13429e-06
5.06886e-07
-5.22291e-06
4.32007e-07
-5.29833e-06
3.61997e-07
-5.36069e-06
2.96234e-07
-5.41014e-06
2.34109e-07
-5.44679e-06
1.75183e-07
-5.47073e-06
1.18977e-07
-5.48206e-06
6.52138e-08
-5.48087e-06
1.3633e-08
-5.4675e-06
-3.54058e-08
-5.44244e-06