/*--------------------------------*- C++ -*----------------------------------*\
| =========                 |                                                 |
| \\      /  F ield         | OpenFOAM: The Open Source CFD Toolbox           |
|  \\    /   O peration     | Version:  2112                                  |
|   \\  /    A nd           | Website:  www.openfoam.com                      |
|    \\/     M anipulation  |                                                 |
\*---------------------------------------------------------------------------*/
FoamFile
{
    version     2.0;
    format      ascii;
    arch        "LSB;label=32;scalar=64";
    class       volVectorField;
    location    "100";
    object      U;
}
// * * * * * * * * * * * * * * * * * * * * * * * * * * * * * * * * * * * * * //

dimensions      [0 1 -1 0 0 0 0];

internalField   nonuniform List<vector> 
12225
(
(9.77144 0.0419753 0)
(9.35663 0.0770396 0)
(8.95446 0.0842179 0)
(8.57274 0.0813621 0)
(8.23134 0.074999 0)
(7.9322 0.0669145 0)
(7.67125 0.0583028 0)
(7.4451 0.0498273 0)
(7.25053 0.0420847 0)
(7.08284 0.0355053 0)
(6.9371 0.0299526 0)
(6.81152 0.0251507 0)
(6.70341 0.0208 0)
(6.61234 0.0167153 0)
(6.5372 0.0125997 0)
(6.47891 0.00780499 0)
(6.44262 0.00235052 0)
(6.42062 -0.0105769 0)
(10.0894 0.0575299 0)
(10.2278 0.0903738 0)
(10.3045 0.0905097 0)
(10.3271 0.0869783 0)
(10.3186 0.0840906 0)
(10.2886 0.0806125 0)
(10.2422 0.0763952 0)
(10.1838 0.071888 0)
(10.118 0.0673515 0)
(10.049 0.0629117 0)
(9.98028 0.0586986 0)
(9.91261 0.0545307 0)
(9.84764 0.0502568 0)
(9.78556 0.0456299 0)
(9.7278 0.0403575 0)
(9.67432 0.0335932 0)
(9.6267 0.0243054 0)
(9.58205 0.0066944 0)
(10.0141 0.0411508 0)
(10.0755 0.063182 0)
(10.1225 0.0661664 0)
(10.1586 0.0701122 0)
(10.1879 0.0739519 0)
(10.2128 0.0755334 0)
(10.2316 0.0751064 0)
(10.2444 0.0735478 0)
(10.2518 0.0713527 0)
(10.255 0.0687824 0)
(10.2548 0.0658541 0)
(10.2522 0.0625465 0)
(10.2477 0.0587884 0)
(10.242 0.0544195 0)
(10.2356 0.0490996 0)
(10.2287 0.041994 0)
(10.2214 0.0320727 0)
(10.2094 0.0150433 0)
(10.007 0.0296626 0)
(10.0415 0.0540412 0)
(10.072 0.0606652 0)
(10.0949 0.06555 0)
(10.1147 0.0689846 0)
(10.1336 0.0701359 0)
(10.1507 0.0696173 0)
(10.1656 0.0682461 0)
(10.1785 0.0663927 0)
(10.1898 0.0641675 0)
(10.1997 0.0615934 0)
(10.2086 0.0586549 0)
(10.2166 0.0552492 0)
(10.2239 0.0511785 0)
(10.2307 0.0460952 0)
(10.2368 0.0393268 0)
(10.2416 0.0302506 0)
(10.2429 0.0171902 0)
(10.0048 0.0234684 0)
(10.029 0.0482638 0)
(10.0537 0.0560164 0)
(10.0718 0.0605998 0)
(10.0875 0.0638425 0)
(10.1028 0.0651778 0)
(10.1172 0.0649891 0)
(10.13 0.0639194 0)
(10.1418 0.0623105 0)
(10.1527 0.0602749 0)
(10.1628 0.0578541 0)
(10.1724 0.0550155 0)
(10.1816 0.0516573 0)
(10.1903 0.0475927 0)
(10.1987 0.0425426 0)
(10.2063 0.0360546 0)
(10.2126 0.0278612 0)
(10.2162 0.0173589 0)
(10.0034 0.0191218 0)
(10.0217 0.0424653 0)
(10.0427 0.0508512 0)
(10.0587 0.0556184 0)
(10.0726 0.0590305 0)
(10.0862 0.0606225 0)
(10.099 0.0606708 0)
(10.1108 0.059771 0)
(10.1216 0.0582789 0)
(10.1318 0.0563157 0)
(10.1415 0.0539238 0)
(10.1507 0.0510739 0)
(10.1596 0.0476864 0)
(10.1681 0.0436071 0)
(10.1762 0.0386341 0)
(10.1835 0.0324948 0)
(10.1896 0.0251207 0)
(10.1934 0.0163642 0)
(10.0024 0.0156633 0)
(10.0166 0.0368202 0)
(10.0345 0.0457972 0)
(10.0491 0.0508366 0)
(10.062 0.0543382 0)
(10.0745 0.0560723 0)
(10.0864 0.0562819 0)
(10.0974 0.055515 0)
(10.1077 0.0541151 0)
(10.1173 0.0522037 0)
(10.1266 0.0498268 0)
(10.1354 0.0469699 0)
(10.1439 0.0435769 0)
(10.152 0.0395318 0)
(10.1596 0.034705 0)
(10.1664 0.0289606 0)
(10.172 0.0223479 0)
(10.1757 0.0149549 0)
(10.0017 0.0128662 0)
(10.0129 0.0316983 0)
(10.0281 0.0409826 0)
(10.0414 0.0461784 0)
(10.0534 0.0496611 0)
(10.065 0.0514641 0)
(10.0762 0.0517991 0)
(10.0867 0.0511459 0)
(10.0965 0.0498256 0)
(10.1058 0.0479599 0)
(10.1146 0.0456026 0)
(10.1231 0.0427536 0)
(10.1312 0.0393816 0)
(10.1388 0.0354119 0)
(10.1459 0.0307795 0)
(10.1522 0.0254472 0)
(10.1575 0.0195311 0)
(10.1612 0.0132112 0)
(10.0012 0.0106042 0)
(10.01 0.0271702 0)
(10.0229 0.0363842 0)
(10.0351 0.0416059 0)
(10.0462 0.0450056 0)
(10.057 0.0468228 0)
(10.0675 0.0472431 0)
(10.0775 0.0466741 0)
(10.0868 0.0454129 0)
(10.0957 0.0435863 0)
(10.1042 0.0412529 0)
(10.1123 0.0384288 0)
(10.12 0.0351059 0)
(10.1273 0.0312495 0)
(10.1339 0.0268465 0)
(10.1398 0.0219256 0)
(10.1448 0.0166273 0)
(10.1485 0.0111602 0)
(10.0009 0.00876467 0)
(10.0079 0.023179 0)
(10.0187 0.0319977 0)
(10.0297 0.0371256 0)
(10.04 0.0403932 0)
(10.0501 0.0421716 0)
(10.06 0.0426335 0)
(10.0694 0.0421177 0)
(10.0783 0.0408964 0)
(10.0868 0.0391017 0)
(10.0949 0.0367972 0)
(10.1026 0.0340145 0)
(10.1099 0.0307658 0)
(10.1167 0.0270521 0)
(10.123 0.022896 0)
(10.1285 0.0183661 0)
(10.1333 0.013603 0)
(10.137 0.00881297 0)
(10.0007 0.0072515 0)
(10.0062 0.019668 0)
(10.0153 0.0278489 0)
(10.0252 0.0327587 0)
(10.0348 0.0358392 0)
(10.0441 0.0375244 0)
(10.0534 0.0379836 0)
(10.0622 0.0374933 0)
(10.0707 0.0362975 0)
(10.0788 0.0345298 0)
(10.0865 0.0322605 0)
(10.0938 0.0295323 0)
(10.1007 0.0263794 0)
(10.1071 0.0228255 0)
(10.113 0.0189199 0)
(10.1182 0.0147477 0)
(10.1227 0.0104356 0)
(10.1264 0.00618009 0)
(10.0006 0.00605802 0)
(10.0051 0.0167815 0)
(10.0129 0.0242365 0)
(10.0218 0.0288439 0)
(10.0307 0.0317061 0)
(10.0394 0.0332624 0)
(10.048 0.0336815 0)
(10.0564 0.0331906 0)
(10.0645 0.0320072 0)
(10.0722 0.0302633 0)
(10.0795 0.0280318 0)
(10.0864 0.0253713 0)
(10.0929 0.0223196 0)
(10.099 0.0189258 0)
(10.1046 0.0152436 0)
(10.1095 0.011369 0)
(10.114 0.00740426 0)
(10.1176 0.00354292 0)
(10.0005 0.00503554 0)
(10.0042 0.0141893 0)
(10.0109 0.0208306 0)
(10.0189 0.0250555 0)
(10.0271 0.0276646 0)
(10.0352 0.0290601 0)
(10.0433 0.0294079 0)
(10.0512 0.0288971 0)
(10.0589 0.0277167 0)
(10.0661 0.0259924 0)
(10.0731 0.0238071 0)
(10.0797 0.021217 0)
(10.0858 0.0182738 0)
(10.0916 0.0150324 0)
(10.0968 0.0115577 0)
(10.1016 0.00793799 0)
(10.1058 0.00426475 0)
(10.1095 0.000709767 0)
(10.0004 0.00404825 0)
(10.0035 0.0115604 0)
(10.0091 0.017201 0)
(10.0161 0.0208882 0)
(10.0235 0.0231444 0)
(10.0311 0.0243044 0)
(10.0386 0.0245284 0)
(10.046 0.0239676 0)
(10.0531 0.0227776 0)
(10.06 0.0210768 0)
(10.0665 0.0189483 0)
(10.0727 0.0164471 0)
(10.0785 0.0136358 0)
(10.0839 0.010566 0)
(10.0888 0.00731141 0)
(10.0933 0.00394661 0)
(10.0974 0.000540522 0)
(10.101 -0.00273413 0)
(10.0003 0.00308136 0)
(10.0028 0.00890921 0)
(10.0075 0.0133854 0)
(10.0136 0.0163693 0)
(10.0203 0.0181552 0)
(10.0271 0.0189946 0)
(10.034 0.0190288 0)
(10.0408 0.0183769 0)
(10.0474 0.017158 0)
(10.0538 0.0154776 0)
(10.0599 0.0134074 0)
(10.0656 0.0110139 0)
(10.071 0.00834409 0)
(10.0761 0.0054627 0)
(10.0807 0.00242369 0)
(10.085 -0.000697287 0)
(10.0889 -0.00386782 0)
(10.0924 -0.00690381 0)
(10.0003 0.00212822 0)
(10.0023 0.00624943 0)
(10.0062 0.00942553 0)
(10.0114 0.0115362 0)
(10.0173 0.0127224 0)
(10.0234 0.0131455 0)
(10.0297 0.0129144 0)
(10.0359 0.0121172 0)
(10.042 0.0108411 0)
(10.0478 0.00916537 0)
(10.0534 0.00715746 0)
(10.0588 0.00487025 0)
(10.0638 0.00235324 0)
(10.0684 -0.000344131 0)
(10.0728 -0.00317246 0)
(10.0768 -0.00607948 0)
(10.0805 -0.0090423 0)
(10.0839 -0.0118942 0)
(10.0002 0.00118085 0)
(10.0019 0.0035705 0)
(10.0052 0.00533361 0)
(10.0097 0.00641126 0)
(10.0148 0.00686197 0)
(10.0203 0.00676437 0)
(10.0259 0.00618626 0)
(10.0315 0.00518217 0)
(10.037 0.0038099 0)
(10.0424 0.00212099 0)
(10.0475 0.000165681 0)
(10.0524 -0.00201664 0)
(10.057 -0.00438308 0)
(10.0613 -0.00690172 0)
(10.0653 -0.00953255 0)
(10.069 -0.0122443 0)
(10.0725 -0.0150232 0)
(10.0757 -0.0177164 0)
(10.0002 0.000215836 0)
(10.0016 0.00081185 0)
(10.0045 0.00104915 0)
(10.0084 0.000948797 0)
(10.013 0.000528049 0)
(10.0179 -0.000197486 0)
(10.023 -0.00120789 0)
(10.028 -0.00248163 0)
(10.0331 -0.00399394 0)
(10.0379 -0.00571966 0)
(10.0426 -0.00763452 0)
(10.047 -0.00971272 0)
(10.0512 -0.0119323 0)
(10.0551 -0.0142691 0)
(10.0588 -0.0167055 0)
(10.0622 -0.0192179 0)
(10.0654 -0.0218097 0)
(10.0683 -0.0243364 0)
(10.0002 -0.000826653 0)
(10.0015 -0.00218835 0)
(10.0042 -0.00361595 0)
(10.0079 -0.00501641 0)
(10.0121 -0.00640731 0)
(10.0167 -0.00783201 0)
(10.0214 -0.00932516 0)
(10.0261 -0.0108971 0)
(10.0307 -0.0125635 0)
(10.0352 -0.0143225 0)
(10.0394 -0.0161838 0)
(10.0435 -0.0181356 0)
(10.0472 -0.0201816 0)
(10.0508 -0.0223048 0)
(10.0541 -0.024509 0)
(10.0571 -0.026776 0)
(10.0599 -0.0291221 0)
(10.0625 -0.0314236 0)
(10.0002 -0.00182933 0)
(10.0017 -0.00508553 0)
(10.0046 -0.00806507 0)
(10.0085 -0.0106257 0)
(10.0129 -0.0128455 0)
(10.0175 -0.014851 0)
(10.0221 -0.0167183 0)
(10.0267 -0.0185021 0)
(10.0312 -0.0202387 0)
(10.0355 -0.0219722 0)
(10.0395 -0.0237199 0)
(10.0433 -0.0255076 0)
(10.0468 -0.027334 0)
(10.0501 -0.0292168 0)
(10.0531 -0.0311452 0)
(10.0559 -0.0331356 0)
(10.0583 -0.0351789 0)
(10.0607 -0.0372076 0)
(10.0002 -0.00276097 0)
(10.002 -0.00773888 0)
(10.0054 -0.0120074 0)
(10.0099 -0.0154261 0)
(10.0146 -0.0182093 0)
(10.0195 -0.0205854 0)
(10.0243 -0.0226655 0)
(10.029 -0.02453 0)
(10.0335 -0.0262488 0)
(10.0377 -0.027891 0)
(10.0417 -0.0294934 0)
(10.0454 -0.0310946 0)
(10.0488 -0.0327029 0)
(10.0519 -0.0343449 0)
(10.0548 -0.0360158 0)
(10.0573 -0.0377359 0)
(10.0596 -0.0394995 0)
(10.0618 -0.0412504 0)
(10.0003 -0.00379998 0)
(10.0027 -0.0105931 0)
(10.0069 -0.0160336 0)
(10.0122 -0.0200971 0)
(10.0175 -0.0232676 0)
(10.0227 -0.0258784 0)
(10.0278 -0.0280621 0)
(10.0327 -0.0299137 0)
(10.0374 -0.0315501 0)
(10.0417 -0.0330507 0)
(10.0457 -0.0344808 0)
(10.0494 -0.035867 0)
(10.0527 -0.0372527 0)
(10.0557 -0.0386386 0)
(10.0585 -0.0400616 0)
(10.0609 -0.0415038 0)
(10.0631 -0.0430027 0)
(10.0651 -0.0444749 0)
(10.0004 -0.00505536 0)
(10.0037 -0.0138434 0)
(10.0093 -0.0202817 0)
(10.0155 -0.0247506 0)
(10.0215 -0.0281516 0)
(10.0272 -0.0308883 0)
(10.0327 -0.0330664 0)
(10.0379 -0.0348244 0)
(10.0428 -0.0363154 0)
(10.0472 -0.0376438 0)
(10.0513 -0.0388707 0)
(10.0551 -0.0400398 0)
(10.0584 -0.0411856 0)
(10.0615 -0.0423342 0)
(10.0642 -0.0435009 0)
(10.0666 -0.0446975 0)
(10.0688 -0.0459302 0)
(10.0708 -0.0471586 0)
(10.0006 -0.00666244 0)
(10.0054 -0.0176807 0)
(10.0127 -0.0248028 0)
(10.0202 -0.0293842 0)
(10.0268 -0.0328856 0)
(10.0331 -0.0356627 0)
(10.0391 -0.0377575 0)
(10.0447 -0.0393595 0)
(10.0499 -0.0406691 0)
(10.0546 -0.0418005 0)
(10.0589 -0.0428109 0)
(10.0628 -0.0437554 0)
(10.0663 -0.0446653 0)
(10.0694 -0.0455826 0)
(10.0722 -0.0465128 0)
(10.0747 -0.0474823 0)
(10.0769 -0.0484777 0)
(10.0789 -0.049486 0)
(10.001 -0.00877776 0)
(10.0079 -0.0222693 0)
(10.0177 -0.02964 0)
(10.0264 -0.0340394 0)
(10.0339 -0.0375041 0)
(10.0409 -0.0402272 0)
(10.0476 -0.0421845 0)
(10.0538 -0.0436147 0)
(10.0594 -0.0447407 0)
(10.0646 -0.0456719 0)
(10.0692 -0.0464671 0)
(10.0734 -0.0471801 0)
(10.0771 -0.0478575 0)
(10.0805 -0.0485343 0)
(10.0834 -0.049237 0)
(10.0861 -0.0499752 0)
(10.0883 -0.0507537 0)
(10.0905 -0.0515334 0)
(10.0016 -0.0116584 0)
(10.0119 -0.027565 0)
(10.025 -0.0347831 0)
(10.0354 -0.038965 0)
(10.0439 -0.0423117 0)
(10.0521 -0.0447923 0)
(10.0599 -0.0464619 0)
(10.0671 -0.0476459 0)
(10.0735 -0.048559 0)
(10.0793 -0.0492865 0)
(10.0845 -0.049877 0)
(10.0892 -0.0503923 0)
(10.0934 -0.050869 0)
(10.0971 -0.0513489 0)
(10.1003 -0.0518596 0)
(10.1032 -0.0524191 0)
(10.1057 -0.0530362 0)
(10.108 -0.0536448 0)
(10.003 -0.0162363 0)
(10.0192 -0.0333719 0)
(10.037 -0.0395093 0)
(10.0504 -0.0437619 0)
(10.0615 -0.0473663 0)
(10.0721 -0.0497193 0)
(10.082 -0.0510632 0)
(10.0909 -0.0518942 0)
(10.0988 -0.0524557 0)
(10.1058 -0.0528248 0)
(10.1121 -0.0530613 0)
(10.1176 -0.053231 0)
(10.1225 -0.0533864 0)
(10.1266 -0.0535614 0)
(10.1302 -0.053779 0)
(10.1332 -0.054072 0)
(10.1357 -0.0544546 0)
(10.1379 -0.0548661 0)
(10.0078 -0.0248498 0)
(10.0394 -0.0412817 0)
(10.0675 -0.0438215 0)
(10.089 -0.0470085 0)
(10.1071 -0.0509389 0)
(10.1237 -0.0537969 0)
(10.1384 -0.055541 0)
(10.1507 -0.0566532 0)
(10.161 -0.0573766 0)
(10.1693 -0.0577769 0)
(10.176 -0.0579355 0)
(10.1811 -0.0579253 0)
(10.1846 -0.057853 0)
(10.1869 -0.0577779 0)
(10.1879 -0.0577438 0)
(10.188 -0.0577802 0)
(10.1873 -0.0579066 0)
(10.186 -0.0582457 0)
(10.0444 -0.037252 0)
(10.1329 -0.0638198 0)
(10.1916 -0.0653414 0)
(10.2252 -0.0639823 0)
(10.2452 -0.0633828 0)
(10.2558 -0.0625576 0)
(10.2577 -0.061378 0)
(10.2516 -0.0601155 0)
(10.2393 -0.0588906 0)
(10.2222 -0.0576699 0)
(10.2013 -0.0564404 0)
(10.1774 -0.0552371 0)
(10.1513 -0.0541228 0)
(10.1236 -0.0531071 0)
(10.0953 -0.0522375 0)
(10.0669 -0.0516451 0)
(10.0384 -0.0512956 0)
(10.0107 -0.0515803 0)
(9.87678 -0.0289763 0)
(9.65041 -0.0560305 0)
(9.42114 -0.0641476 0)
(9.19444 -0.0659674 0)
(8.98121 -0.0654898 0)
(8.78509 -0.0633518 0)
(8.60491 -0.0601497 0)
(8.43949 -0.0564473 0)
(8.28794 -0.0525721 0)
(8.1496 -0.0487563 0)
(8.02332 -0.0450505 0)
(7.90816 -0.0415168 0)
(7.80288 -0.0382464 0)
(7.70644 -0.035365 0)
(7.61711 -0.0329604 0)
(7.53396 -0.0310133 0)
(7.45579 -0.0294374 0)
(7.38287 -0.0285701 0)
(0.0429958 0.0324167 -6.79211e-19)
(-0.0529395 0.0377086 2.53915e-19)
(-0.0859354 0.0540204 0)
(-0.153801 0.0628639 0)
(-0.212999 0.0676504 0)
(-0.269245 0.0680469 -5.35092e-20)
(-0.323341 0.0649062 0)
(-0.374853 0.0597371 0)
(-0.423253 0.0538466 0)
(-0.468643 0.0481629 0)
(-0.51213 0.0436123 3.31179e-20)
(-0.554597 0.0412168 0)
(-0.597365 0.0404862 0)
(-0.641804 0.0414462 0)
(-0.689221 0.0451232 0)
(-0.740361 0.050011 2.76943e-20)
(-0.796775 0.0555994 0)
(-0.858794 0.0618348 0)
(-0.92662 0.0679233 0)
(-0.999746 0.0733847 0)
(-1.07734 0.0778485 0)
(-1.1579 0.0810735 0)
(-1.23999 0.0828366 0)
(-1.32178 0.0831769 2.351e-20)
(-1.40198 0.08207 -2.36052e-20)
(-1.47893 0.0796942 2.38023e-20)
(-1.5513 0.0758922 2.41541e-20)
(-1.6178 0.0710393 0)
(-1.67766 0.0653033 0)
(-1.73024 0.0590557 -2.5907e-20)
(-1.77525 0.0522148 -2.66934e-20)
(-1.81207 0.045119 0)
(-1.84056 0.0378245 0)
(-1.8608 0.0303472 -2.90527e-20)
(-1.87268 0.0226544 0)
(-1.87702 0.0148865 0)
(-1.87419 0.00638117 2.96037e-20)
(-1.86379 -0.00300059 0)
(-1.84535 -0.0136824 2.79034e-20)
(-1.81821 -0.0259096 5.23653e-20)
(-1.78132 -0.0399998 0)
(-1.73325 -0.055013 0)
(-1.67398 -0.0717313 0)
(-1.60342 -0.0910159 0)
(-1.51717 -0.111017 0)
(-1.41513 -0.12934 -1.94871e-22)
(-1.30596 -0.150912 -1.48398e-20)
(-1.18048 -0.17595 -3.11627e-20)
(-1.02672 -0.194367 0)
(-0.877426 -0.208205 7.24038e-20)
(-0.742329 -0.237286 0)
(-0.532241 -0.272181 -1.08932e-19)
(-0.271202 -0.283745 -1.06016e-19)
(-0.0264321 -0.278868 0)
(0.218358 -0.268562 0)
(0.457642 -0.255537 0)
(0.687663 -0.240404 -9.56962e-20)
(0.904124 -0.223253 0)
(1.10353 -0.204291 0)
(1.28278 -0.182642 0)
(1.43592 -0.15317 0)
(1.55736 -0.110813 0)
(1.62392 -0.0600376 0)
(1.63591 -0.0100968 0)
(1.59223 0.0334922 0)
(1.49691 0.0670819 1.13252e-19)
(1.35928 0.0887264 0)
(1.19288 0.0991513 0)
(1.00548 0.10114 -1.69529e-19)
(0.813776 0.0909357 -2.04118e-19)
(0.672496 0.0674861 0)
(0.53515 0.0619178 3.17081e-19)
(0.300187 0.0943823 -3.45923e-19)
(-0.00818672 0.0972241 0)
(-0.0302873 0.0312721 2.9926e-19)
(-0.0582627 -0.00254105 0)
(-0.0289472 -0.00160896 0)
(0.021673 -0.00410503 -2.97017e-19)
(0.0846081 -0.0424363 0)
(0.155825 -0.0641274 2.61511e-19)
(0.279203 -0.00518444 0)
(0.293695 0.0301819 -2.74678e-19)
(0.249165 0.0170631 -3.16833e-19)
(0.176436 -0.0498523 -3.71686e-19)
(0.405112 -0.0311076 -6.11383e-19)
(-0.0986504 0.241362 3.96624e-19)
(-0.731278 0.391987 0)
(-1.39023 0.444064 0)
(-2.05558 0.435469 0)
(-2.68078 0.395341 1.29009e-19)
(-3.24882 0.345622 9.47156e-20)
(-3.74959 0.295481 -6.51418e-20)
(-4.1853 0.250325 0)
(-4.55963 0.210668 1.77367e-20)
(-4.88091 0.177373 -1.84967e-21)
(-5.15497 0.148764 -1.94968e-20)
(-5.38822 0.124741 0)
(-5.58647 0.104299 0)
(-5.75337 0.08657 0)
(-5.89248 0.0709348 -7.54594e-20)
(-6.00596 0.0566013 0)
(-6.09639 0.0436094 0)
(-6.16526 0.0320843 1.06363e-19)
(-6.21448 0.021538 0)
(-6.24538 0.0123913 0)
(-6.26054 0.00438523 1.27908e-19)
(-6.26277 -0.00260219 0)
(-6.25287 -0.0089293 0)
(-6.23141 -0.0148097 -1.39448e-19)
(-6.19892 -0.0206511 -1.40986e-19)
(-6.15592 -0.0258444 0)
(-6.10316 -0.030302 1.40853e-19)
(-6.04145 -0.0342095 0)
(-5.97125 -0.0378778 -1.36519e-19)
(-5.89348 -0.041208 0)
(-5.80762 -0.0447693 -1.28554e-19)
(-5.71506 -0.0478517 -1.23182e-19)
(-5.61588 -0.0508707 0)
(-5.51103 -0.0535257 0)
(-5.40157 -0.0558584 0)
(-5.28769 -0.0579785 0)
(-5.17041 -0.0594161 0)
(-5.05021 -0.0606012 0)
(-4.92743 -0.0617064 0)
(-4.80292 -0.0623366 -5.46761e-20)
(-4.67746 -0.0622606 4.35889e-20)
(-4.55174 -0.061584 0)
(-4.42647 -0.0602566 0)
(-4.30232 -0.0582965 0)
(-4.18003 -0.0556283 0)
(-4.06034 -0.0523731 -3.33369e-20)
(-3.94393 -0.0485553 0)
(-3.83139 -0.0443925 8.40411e-20)
(-3.72318 -0.0399467 -1.09469e-19)
(-3.61958 -0.0354416 0)
(-3.5208 -0.030974 0)
(-3.42695 -0.0267333 0)
(-3.33788 -0.0228846 2.07077e-19)
(-3.25319 -0.0195335 2.29045e-19)
(-3.17249 -0.0167383 0)
(-3.0949 -0.0146557 2.67751e-19)
(-3.02009 -0.0130667 2.83956e-19)
(-2.94719 -0.0121236 -2.97655e-19)
(-2.87547 -0.0116275 0)
(-2.80411 -0.0115492 0)
(-2.73165 -0.0120345 -3.26735e-19)
(-2.65716 -0.0129141 0)
(-2.57911 -0.0141575 0)
(-2.49626 -0.0155173 0)
(-2.40721 -0.0169834 0)
(-2.31096 -0.0183044 3.71144e-19)
(-2.20695 -0.0194351 3.87923e-19)
(-2.09438 -0.0209241 0)
(-1.97294 -0.0231601 4.3932e-19)
(-1.8423 -0.026482 0)
(-1.70224 -0.030423 0)
(-1.55379 -0.034656 5.84524e-19)
(-1.39711 -0.0395871 0)
(-1.23293 -0.0453314 7.51617e-19)
(-1.06196 -0.0520904 0)
(-0.885213 -0.0596343 0)
(-0.705143 -0.0684656 1.19847e-18)
(-0.521677 -0.0785719 0)
(-0.335298 -0.0915269 1.80525e-18)
(-0.135558 -0.10185 0)
(0.096936 -0.0987015 0)
(0.328945 -0.0916159 0)
(0.556193 -0.0847662 -1.17993e-18)
(0.775968 -0.0783321 0)
(0.985955 -0.0715948 9.76452e-19)
(1.18593 -0.0653279 0)
(1.37463 -0.0604834 0)
(1.55182 -0.0565535 0)
(1.71608 -0.0519345 0)
(1.86761 -0.0468762 0)
(2.00361 -0.0411141 0)
(2.12576 -0.0339911 0)
(2.2195 -0.0254766 -1.41266e-18)
(2.30866 -0.00924519 0)
(2.26749 0.0184133 0)
(0.0332065 0.124601 1.23315e-18)
(-0.108042 0.1601 -8.68353e-20)
(-0.160375 0.184424 0)
(-0.225635 0.18747 3.51239e-20)
(-0.272623 0.182364 0)
(-0.314434 0.173654 1.42446e-20)
(-0.354387 0.164059 -2.86294e-20)
(-0.394461 0.155234 -2.7995e-20)
(-0.435951 0.148199 0)
(-0.479671 0.143212 -2.78169e-20)
(-0.526295 0.140285 -1.42279e-20)
(-0.576113 0.13951 0)
(-0.628974 0.141035 0)
(-0.684539 0.1449 0)
(-0.742069 0.150875 0)
(-0.801023 0.159069 -1.49143e-20)
(-0.861513 0.169045 0)
(-0.922608 0.179319 2.97425e-20)
(-0.983846 0.188761 0)
(-1.0445 0.196223 0)
(-1.10384 0.200618 -2.98425e-20)
(-1.16102 0.201519 0)
(-1.21536 0.198789 3.00197e-20)
(-1.26621 0.192746 -1.5073e-20)
(-1.31348 0.183641 1.52135e-20)
(-1.3569 0.171746 -1.53508e-20)
(-1.39649 0.157632 -1.56039e-20)
(-1.43236 0.142367 0)
(-1.46481 0.126326 0)
(-1.49397 0.109639 1.64894e-20)
(-1.51972 0.0925597 -1.58421e-20)
(-1.5423 0.0758745 0)
(-1.56181 0.0591878 0)
(-1.57741 0.0425762 1.77177e-20)
(-1.58904 0.026187 0)
(-1.59451 0.0096029 0)
(-1.59212 -0.00803227 -1.72307e-20)
(-1.58063 -0.0271288 0)
(-1.5589 -0.0481162 1.52035e-20)
(-1.52593 -0.0709667 -2.82531e-20)
(-1.48066 -0.0963261 0)
(-1.42202 -0.12402 0)
(-1.34916 -0.153734 -3.36725e-20)
(-1.2619 -0.185559 -2.2931e-20)
(-1.15969 -0.220205 -1.07743e-20)
(-1.04139 -0.255487 1.94643e-21)
(-0.907575 -0.290386 1.23927e-20)
(-0.76115 -0.32766 5.30744e-20)
(-0.598108 -0.367476 -4.71792e-20)
(-0.414671 -0.406049 -3.34614e-20)
(-0.223057 -0.442772 0)
(-0.0389495 -0.472315 4.01032e-20)
(0.136914 -0.487769 -3.72528e-20)
(0.31194 -0.488935 0)
(0.490669 -0.479633 0)
(0.671156 -0.461621 0)
(0.849189 -0.435752 5.1433e-20)
(1.02025 -0.402724 0)
(1.18111 -0.362999 -1.06018e-19)
(1.32885 -0.316083 0)
(1.4629 -0.260842 -1.17818e-19)
(1.58519 -0.195394 0)
(1.70699 -0.118391 1.36938e-19)
(1.81887 -0.0315995 0)
(1.90842 0.0608685 -1.48987e-19)
(1.95971 0.151235 7.5425e-20)
(1.95945 0.230072 0)
(1.89992 0.289377 1.71932e-19)
(1.78041 0.323019 9.70846e-20)
(1.61991 0.329965 1.10846e-19)
(1.43624 0.325246 0)
(1.20743 0.321742 1.46579e-19)
(0.987437 0.30037 1.82292e-19)
(0.854996 0.237468 0)
(0.767575 0.142116 -2.64236e-19)
(0.610639 0.0548789 5.26768e-19)
(0.529954 -0.00654286 0)
(0.617796 -0.0885608 1.44916e-19)
(0.768279 -0.139563 0)
(0.830927 -0.121304 -4.4185e-19)
(0.80061 -0.198633 0)
(0.651061 -0.282649 6.91121e-19)
(0.40469 0.265639 1.63917e-19)
(-0.432754 0.73997 -1.26866e-19)
(-1.4058 0.93487 -1.88607e-19)
(-2.36449 1.01834 1.56008e-19)
(-3.09665 1.03229 0)
(-3.66534 0.984595 0)
(-4.10289 0.898601 0)
(-4.4451 0.794345 -2.57369e-19)
(-4.71687 0.687237 -7.26459e-20)
(-4.93685 0.587469 5.51487e-20)
(-5.11806 0.498988 0)
(-5.2706 0.422858 1.53848e-20)
(-5.40055 0.35779 -5.90531e-21)
(-5.51232 0.302301 8.65764e-21)
(-5.60858 0.254794 0)
(-5.69144 0.213626 0)
(-5.76264 0.177381 0)
(-5.82346 0.144848 5.65793e-20)
(-5.8743 0.115619 0)
(-5.91605 0.0892798 -1.51202e-19)
(-5.94969 0.0654211 -2.50479e-19)
(-5.97513 0.043622 1.81485e-19)
(-5.9925 0.0239312 0)
(-5.99971 0.00652214 1.02643e-19)
(-5.99584 -0.00914869 0)
(-5.98055 -0.0241078 2.19594e-19)
(-5.95409 -0.0375938 -1.13582e-19)
(-5.9174 -0.0501989 -1.14963e-19)
(-5.87129 -0.0621819 0)
(-5.81569 -0.0732709 -3.40871e-19)
(-5.75104 -0.0830201 2.26195e-19)
(-5.67852 -0.0926457 1.09349e-19)
(-5.59811 -0.101308 0)
(-5.51083 -0.108732 1.02939e-19)
(-5.41765 -0.115463 2.98876e-19)
(-5.31855 -0.12134 0)
(-5.21474 -0.126044 1.79166e-19)
(-5.10677 -0.129656 1.67072e-19)
(-4.99421 -0.133336 1.52651e-19)
(-4.88001 -0.135962 0)
(-4.76191 -0.137797 0)
(-4.64189 -0.138691 0)
(-4.51997 -0.139309 -4.65617e-20)
(-4.3972 -0.139279 -3.42044e-20)
(-4.27338 -0.138762 0)
(-4.14992 -0.137383 -3.30117e-20)
(-4.02702 -0.135308 -1.28916e-20)
(-3.90551 -0.132409 0)
(-3.78601 -0.128819 3.1327e-20)
(-3.66913 -0.124444 9.95844e-20)
(-3.5555 -0.119514 -7.34373e-20)
(-3.44569 -0.114018 -9.08204e-20)
(-3.34019 -0.108212 0)
(-3.23948 -0.102102 0)
(-3.14379 -0.0959702 0)
(-3.05265 -0.0901495 -1.76457e-19)
(-2.9664 -0.0847656 1.95295e-19)
(-2.88448 -0.0798726 4.25335e-19)
(-2.80624 -0.0756829 -2.27084e-19)
(-2.73122 -0.0722266 2.4248e-19)
(-2.65832 -0.0695881 2.50559e-19)
(-2.58688 -0.0681428 0)
(-2.51521 -0.0679138 0)
(-2.4421 -0.0687202 -2.71696e-19)
(-2.36611 -0.0708901 0)
(-2.2861 -0.0743278 0)
(-2.20031 -0.0790778 5.56693e-19)
(-2.10713 -0.0848599 0)
(-2.00584 -0.09152 2.86648e-19)
(-1.89493 -0.0989221 -2.9483e-19)
(-1.77355 -0.106713 0)
(-1.64127 -0.114766 3.20418e-19)
(-1.4979 -0.122621 0)
(-1.34399 -0.129984 0)
(-1.17976 -0.137104 -3.96562e-19)
(-1.00569 -0.143642 8.65472e-19)
(-0.822335 -0.149694 -4.78148e-19)
(-0.631322 -0.154849 0)
(-0.431614 -0.160046 0)
(-0.220176 -0.165628 6.41582e-19)
(0.00992914 -0.171586 0)
(0.252523 -0.180585 5.77355e-19)
(0.488694 -0.188634 0)
(0.716093 -0.189579 0)
(0.938807 -0.184975 0)
(1.15856 -0.177889 4.95078e-19)
(1.3732 -0.169703 0)
(1.58125 -0.160724 -4.69133e-19)
(1.78182 -0.151124 0)
(1.97305 -0.140754 0)
(2.15435 -0.130023 8.83707e-19)
(2.32434 -0.118904 -8.74193e-19)
(2.48282 -0.107482 0)
(2.62765 -0.0954013 0)
(2.75893 -0.0817715 0)
(2.86941 -0.0647007 2.59509e-18)
(2.96663 -0.0379624 0)
(3.01582 0.0130998 -1.79923e-18)
(0.0163637 0.229868 3.28344e-21)
(-0.0739164 0.305509 9.40122e-20)
(-0.119184 0.294311 0)
(-0.153053 0.272656 -4.98132e-20)
(-0.178286 0.251586 0)
(-0.199887 0.234858 0)
(-0.220383 0.223095 -8.86574e-22)
(-0.241665 0.216226 1.63585e-20)
(-0.264927 0.214035 1.66662e-20)
(-0.291156 0.216 1.66759e-20)
(-0.321213 0.221385 0)
(-0.355764 0.229281 0)
(-0.395135 0.23874 -1.89288e-20)
(-0.439107 0.249018 -3.97642e-20)
(-0.487202 0.259584 4.15136e-20)
(-0.538231 0.270283 0)
(-0.591319 0.280447 4.38933e-20)
(-0.645217 0.289208 -2.24771e-20)
(-0.699118 0.295717 0)
(-0.752476 0.299038 4.39296e-20)
(-0.804953 0.298498 2.20013e-20)
(-0.85644 0.293976 -4.30989e-20)
(-0.906981 0.28565 -2.16514e-20)
(-0.956529 0.273816 0)
(-1.00514 0.258936 4.21588e-20)
(-1.05282 0.241377 4.19079e-20)
(-1.09925 0.221842 0)
(-1.14447 0.201212 4.22058e-20)
(-1.18819 0.179907 0)
(-1.22998 0.158008 4.30404e-20)
(-1.26913 0.13554 2.24708e-20)
(-1.30512 0.112496 0)
(-1.33706 0.0884773 0)
(-1.3638 0.0630672 0)
(-1.38457 0.0358651 0)
(-1.39813 0.00645065 0)
(-1.40349 -0.0256114 0)
(-1.39968 -0.0604997 4.32126e-20)
(-1.38576 -0.0983508 -6.15838e-20)
(-1.36079 -0.139137 0)
(-1.32394 -0.182932 0)
(-1.27454 -0.229539 0)
(-1.21197 -0.278498 -3.45536e-21)
(-1.13588 -0.329242 1.45318e-20)
(-1.04614 -0.381365 1.83518e-20)
(-0.942768 -0.433705 -2.07932e-21)
(-0.825716 -0.484783 4.70465e-21)
(-0.695891 -0.533388 -1.94234e-20)
(-0.555181 -0.577182 5.95483e-21)
(-0.402659 -0.61663 -3.02785e-20)
(-0.24133 -0.650706 0)
(-0.076746 -0.678278 -4.30017e-20)
(0.0898101 -0.696418 4.30999e-21)
(0.258254 -0.702865 0)
(0.428447 -0.697465 0)
(0.599154 -0.680134 6.32957e-20)
(0.768376 -0.650189 0)
(0.933711 -0.608925 0)
(1.09185 -0.557415 -7.29826e-20)
(1.23938 -0.496817 -1.55134e-19)
(1.37379 -0.428249 8.15733e-20)
(1.49433 -0.351914 0)
(1.6026 -0.266291 -9.36613e-20)
(1.7015 -0.167882 0)
(1.79431 -0.0543287 -1.12713e-19)
(1.87997 0.072542 -1.21301e-19)
(1.95121 0.205989 2.54483e-19)
(1.99472 0.331795 1.29852e-19)
(1.99521 0.431881 0)
(1.94462 0.497815 -2.94457e-19)
(1.84773 0.532918 0)
(1.72147 0.530139 -5.3365e-19)
(1.58476 0.476279 -3.93555e-19)
(1.45746 0.379604 -4.44764e-19)
(1.32961 0.270705 5.00383e-19)
(1.21301 0.147944 -7.79149e-19)
(1.19309 -0.00677261 0)
(1.28937 -0.177085 0)
(1.31848 -0.29052 4.52449e-19)
(1.28276 -0.372843 8.44314e-19)
(0.847021 0.159635 0)
(-0.138827 1.02006 -1.56455e-19)
(-1.16728 1.46351 0)
(-2.10735 1.59376 3.59313e-19)
(-2.78341 1.61346 -1.55795e-20)
(-3.29183 1.57385 9.05108e-22)
(-3.64645 1.47184 -1.91431e-19)
(-3.89839 1.32989 0)
(-4.09127 1.17035 1.47855e-19)
(-4.2564 1.01304 1.33779e-20)
(-4.40888 0.868485 0)
(-4.55446 0.74149 0)
(-4.69457 0.632209 0)
(-4.82781 0.539391 -2.99337e-20)
(-4.95331 0.460164 0)
(-5.06926 0.392201 0)
(-5.17475 0.333428 0)
(-5.2697 0.281684 0)
(-5.35315 0.235358 0)
(-5.42511 0.193456 9.31664e-20)
(-5.485 0.155233 0)
(-5.53333 0.12005 1.21639e-19)
(-5.57012 0.0873385 1.3436e-19)
(-5.59517 0.0568001 -1.45575e-19)
(-5.60901 0.0282445 0)
(-5.6111 0.00153323 -1.63044e-19)
(-5.60192 -0.0234072 0)
(-5.58156 -0.0467518 -1.75067e-19)
(-5.5506 -0.0685779 1.79035e-19)
(-5.51021 -0.089101 5.47518e-19)
(-5.46028 -0.108405 0)
(-5.40126 -0.12593 5.48226e-19)
(-5.33393 -0.141798 1.84881e-19)
(-5.25899 -0.15617 0)
(-5.1765 -0.169534 3.47941e-19)
(-5.08789 -0.181876 3.35155e-19)
(-4.99316 -0.192694 -4.7859e-19)
(-4.89347 -0.202018 0)
(-4.78933 -0.209875 -1.40869e-19)
(-4.68113 -0.215611 -1.31808e-19)
(-4.56951 -0.220911 -3.671e-19)
(-4.45557 -0.224965 0)
(-4.33891 -0.227608 0)
(-4.22141 -0.229401 0)
(-4.10269 -0.229754 -7.69248e-20)
(-3.98329 -0.228878 0)
(-3.86362 -0.227036 0)
(-3.74443 -0.224241 2.62662e-20)
(-3.62599 -0.220256 1.02824e-20)
(-3.5089 -0.215196 0)
(-3.39363 -0.209083 0)
(-3.28067 -0.201951 -8.00089e-20)
(-3.17057 -0.193959 0)
(-3.06385 -0.185226 1.49603e-19)
(-2.96102 -0.176069 1.8146e-19)
(-2.86256 -0.166677 0)
(-2.76878 -0.157057 0)
(-2.67978 -0.147688 -2.85709e-19)
(-2.5959 -0.139037 5.28701e-23)
(-2.5168 -0.131112 8.03049e-22)
(-2.4423 -0.124128 0)
(-2.37169 -0.118379 -7.88743e-19)
(-2.3037 -0.114111 0)
(-2.23739 -0.111698 0)
(-2.17042 -0.111394 0)
(-2.10221 -0.113024 4.41479e-19)
(-2.03013 -0.116986 0)
(-1.95322 -0.123056 -8.95903e-19)
(-1.86891 -0.131359 -4.49408e-19)
(-1.7761 -0.1414 0)
(-1.67377 -0.152597 -4.58997e-19)
(-1.56023 -0.164743 0)
(-1.43468 -0.177311 0)
(-1.29688 -0.189958 -1.52017e-18)
(-1.14645 -0.20235 1.07003e-18)
(-0.98416 -0.213668 0)
(-0.809925 -0.224233 1.22521e-18)
(-0.624198 -0.234058 -6.64424e-19)
(-0.427503 -0.244022 0)
(-0.220166 -0.253823 0)
(0.000382395 -0.262484 0)
(0.230367 -0.270736 -2.26168e-18)
(0.464045 -0.278264 0)
(0.698445 -0.283986 -7.06024e-19)
(0.928807 -0.287478 0)
(1.15338 -0.286706 0)
(1.37347 -0.281158 0)
(1.58904 -0.272437 0)
(1.79879 -0.261686 0)
(2.00199 -0.249393 0)
(2.19766 -0.236174 -1.25077e-18)
(2.38451 -0.222118 0)
(2.5621 -0.207255 -6.1655e-19)
(2.72936 -0.191418 1.84104e-18)
(2.886 -0.174664 0)
(3.03012 -0.15648 0)
(3.16177 -0.135841 -1.23048e-18)
(3.27515 -0.109855 -1.25016e-18)
(3.37946 -0.0736518 1.27098e-18)
(3.44081 -0.0157876 1.33381e-18)
(0.00129578 0.307924 -1.5617e-18)
(-0.0436707 0.395553 -1.2734e-19)
(-0.0709455 0.355402 -5.41902e-20)
(-0.0849504 0.318217 -2.02888e-20)
(-0.0970286 0.28929 0)
(-0.108209 0.268591 2.5128e-20)
(-0.119687 0.255735 -1.18325e-20)
(-0.132302 0.250255 0)
(-0.146607 0.251555 -1.00105e-20)
(-0.163177 0.258807 0)
(-0.182641 0.270945 2.07187e-20)
(-0.205585 0.286739 0)
(-0.232526 0.304806 1.15226e-20)
(-0.263809 0.323742 2.46305e-20)
(-0.299578 0.342221 -2.63491e-20)
(-0.339602 0.359127 0)
(-0.383391 0.373466 -2.94787e-20)
(-0.430193 0.384441 0)
(-0.479272 0.391513 0)
(-0.529955 0.394346 -3.15703e-20)
(-0.581794 0.392858 0)
(-0.634492 0.387218 8.45753e-22)
(-0.687857 0.377675 0)
(-0.741691 0.364582 0)
(-0.795853 0.348341 -6.85807e-22)
(-0.850168 0.329327 -3.13742e-20)
(-0.904403 0.308114 -3.10024e-20)
(-0.95827 0.28514 -3.19628e-20)
(-1.01127 0.260534 0)
(-1.06286 0.234227 -6.55919e-20)
(-1.11238 0.206136 0)
(-1.15913 0.176081 -3.41055e-20)
(-1.20227 0.1437 0)
(-1.24088 0.108607 0)
(-1.27404 0.0703766 3.63992e-20)
(-1.30081 0.028662 0)
(-1.32014 -0.0168564 -3.65e-20)
(-1.33119 -0.0663442 1.3028e-21)
(-1.33302 -0.119835 6.8144e-20)
(-1.32475 -0.177208 -6.67703e-20)
(-1.30554 -0.238243 0)
(-1.27473 -0.302532 0)
(-1.23174 -0.369464 -2.86509e-20)
(-1.17612 -0.438311 0)
(-1.10769 -0.5081 -9.33469e-21)
(-1.0265 -0.577604 3.00062e-21)
(-0.932271 -0.645664 -3.75956e-21)
(-0.825979 -0.709831 0)
(-0.708276 -0.768356 1.83365e-20)
(-0.577976 -0.821101 2.61954e-20)
(-0.434837 -0.866196 -5.73419e-20)
(-0.279676 -0.90129 3.95442e-20)
(-0.116942 -0.923602 4.47065e-20)
(0.0511463 -0.932024 0)
(0.222579 -0.926441 0)
(0.39445 -0.90638 -5.66393e-20)
(0.564973 -0.872258 0)
(0.733975 -0.824372 0)
(0.898607 -0.76156 1.33966e-19)
(1.05611 -0.68547 1.39188e-19)
(1.20308 -0.598511 0)