/*--------------------------------*- C++ -*----------------------------------*\
| =========                 |                                                 |
| \\      /  F ield         | OpenFOAM: The Open Source CFD Toolbox           |
|  \\    /   O peration     | Version:  2112                                  |
|   \\  /    A nd           | Website:  www.openfoam.com                      |
|    \\/     M anipulation  |                                                 |
\*---------------------------------------------------------------------------*/
FoamFile
{
    version     2.0;
    format      ascii;
    arch        "LSB;label=32;scalar=64";
    class       surfaceScalarField;
    location    "1200";
    object      phi;
}
// * * * * * * * * * * * * * * * * * * * * * * * * * * * * * * * * * * * * * //

dimensions      [0 3 -1 0 0 0 0];

oriented        oriented;

internalField   uniform 0;

boundaryField
{
    Bottom
    {
        type            empty;
        value           nonuniform List<scalar> 0();
    }
    Window_large
    {
        type            calculated;
        value           nonuniform List<scalar> 
40
(
-8e-05
-8e-05
-8e-05
-8e-05
-8e-05
-8e-05
-8e-05
-8e-05
-8e-05
-8e-05
-8e-05
-8e-05
-8e-05
-8e-05
-8e-05
-8e-05
-8e-05
-8e-05
-8e-05
-8e-05
-8e-05
-8e-05
-8e-05
-8e-05
-8e-05
-8e-05
-8e-05
-8e-05
-8e-05
-8e-05
-8e-05
-8e-05
-8e-05
-8e-05
-8e-05
-8e-05
-8e-05
-8e-05
-8e-05
-8e-05
)
;
    }
    Window_small
    {
        type            calculated;
        value           nonuniform List<scalar> 10(-8e-05 -8e-05 -8e-05 -8e-05 -8e-05 -8e-05 -8e-05 -8e-05 -8e-05 -8e-05);
    }
    Walls
    {
        type            calculated;
        value           uniform 0;
    }
    Door
    {
        type            calculated;
        value           uniform 0;
    }
    Head_m
    {
        type            calculated;
        value           uniform 0;
    }
    Mouth_m
    {
        type            calculated;
        value           nonuniform List<scalar> 
20
(
1.97495e-05
1.97495e-05
1.97495e-05
1.97495e-05
1.97495e-05
1.97495e-05
1.97495e-05
1.97495e-05
1.97495e-05
1.97495e-05
1.97495e-05
1.97495e-05
1.97495e-05
1.97495e-05
1.97495e-05
1.97495e-05
1.97495e-05
1.97495e-05
1.97495e-05
1.97495e-05
)
;
    }
    Head_f
    {
        type            calculated;
        value           uniform 0;
    }
    Mouth_f
    {
        type            calculated;
        value           nonuniform List<scalar> 
20
(
1.73105e-05
1.73105e-05
1.73105e-05
1.73105e-05
1.73105e-05
1.73105e-05
1.73105e-05
1.73105e-05
1.73105e-05
1.73105e-05
1.73105e-05
1.73105e-05
1.73105e-05
1.73105e-05
1.73105e-05
1.73105e-05
1.73105e-05
1.73105e-05
1.73105e-05
1.73105e-05
)
;
    }
    Top
    {
        type            empty;
        value           nonuniform List<scalar> 0();
    }
}


// ************************************************************************* //
