/*--------------------------------*- C++ -*----------------------------------*\
| =========                 |                                                 |
| \\      /  F ield         | OpenFOAM: The Open Source CFD Toolbox           |
|  \\    /   O peration     | Version:  2112                                  |
|   \\  /    A nd           | Website:  www.openfoam.com                      |
|    \\/     M anipulation  |                                                 |
\*---------------------------------------------------------------------------*/
FoamFile
{
    version     2.0;
    format      ascii;
    arch        "LSB;label=32;scalar=64";
    class       volScalarField;
    location    "1200";
    object      T;
}
// * * * * * * * * * * * * * * * * * * * * * * * * * * * * * * * * * * * * * //

dimensions      [0 0 0 0 0 0 0];

internalField   nonuniform List<scalar> 
73792
(
2.81586e-10
2.65918e-08
9.76717e-09
2.47207e-09
9.08989e-09
1.72304e-10
2.34834e-08
1.17373e-08
2.44063e-08
1.09767e-08
6.66637e-08
4.31853e-10
3.66416e-10
1.76682e-15
3.18415e-08
6.92172e-10
2.13607e-09
8.13412e-08
4.52435e-09
2.26064e-08
1.60905e-08
6.55303e-08
4.65354e-47
1.99791e-12
9.7566e-09
5.79545e-10
7.55321e-14
7.57626e-45
1.03799e-18
6.75901e-83
1.28106e-10
5.7763e-09
9.54477e-10
1.24387e-08
1.61298e-08
1.73774e-10
1.37109e-12
1.42726e-09
4.03929e-23
3.06147e-10
1.4821e-09
8.59879e-13
2.21756e-08
1.91349e-08
1.03528e-09
1.77735e-63
1.93107e-11
3.91297e-08
4.2876e-11
5.31141e-09
2.98695e-12
1.20776e-09
6.37416e-10
5.25579e-09
4.8625e-19
1.60496e-08
2.0903e-09
9.20872e-08
1.53725e-09
2.00587e-08
5.72593e-10
7.48608e-82
3.37111e-09
6.07685e-09
2.67978e-08
3.05104e-08
1.74488e-09
1.15718e-11
3.38001e-08
3.4624e-09
1.88142e-09
1.47435e-08
8.49427e-10
2.90116e-44
1.12816e-07
2.64538e-10
3.44869e-09
2.62868e-11
1.0809e-08
2.51104e-08
1.16724e-08
2.31551e-11
3.03786e-08
1.26112e-09
2.0638e-09
2.48165e-08
1.23806e-08
1.15272e-09
5.85234e-09
4.58173e-08
2.17234e-09
2.75059e-10
2.78624e-08
1.74364e-08
9.30555e-10
7.14411e-11
5.26058e-08
4.55998e-08
6.63183e-30
5.37406e-12
8.00152e-08
1.73609e-12
1.38358e-12
2.04583e-43
3.18307e-10
1.32035e-08
3.49272e-09
4.30488e-12
8.54436e-13
7.44302e-10
8.04762e-13
7.91521e-23
7.88378e-09
2.01591e-81
2.24373e-08
2.81131e-12
8.80566e-13
1.75033e-08
3.74097e-10
2.25623e-08
6.81447e-09
4.64896e-08
6.65748e-09
7.26753e-12
2.4532e-43
5.22862e-10
5.3297e-09
2.8559e-08
1.82229e-08
1.47397e-08
3.5704e-08
8.45962e-08
1.34363e-09
1.61249e-46
2.76372e-08
1.9109e-09
2.00772e-12
5.07695e-09
2.39407e-09
9.28523e-10
4.05645e-09
1.92272e-10
5.49403e-10
2.27941e-11
3.90044e-09
1.557e-09
4.06647e-09
4.15142e-09
4.26623e-14
3.86895e-11
4.55909e-10
4.71959e-08
6.53867e-08
2.84672e-08
3.62451e-08
1.33589e-08
2.88551e-09
6.25721e-09
4.36617e-09
6.27821e-10
1.82556e-11
4.61248e-08
8.71524e-10
6.16604e-10
6.5166e-11
5.92693e-08
9.19706e-12
3.26427e-08
2.42999e-08
5.08782e-10
1.31228e-09
1.55034e-20
3.77128e-26
5.36559e-09
9.92403e-20
2.2749e-08
1.58437e-08
3.01881e-08
1.61707e-09
1.30663e-11
4.40851e-09
5.70798e-10
1.27196e-09
5.66504e-10
5.13654e-18
1.42096e-08
1.91206e-08
2.13458e-09
1.41797e-10
3.88823e-08
7.70917e-09
6.3272e-10
6.5375e-09
6.50673e-13
1.36048e-08
2.62663e-10
4.88757e-09
2.86954e-57
3.79418e-13
4.34605e-08
3.23642e-81
1.23087e-65
1.18604e-09
1.31224e-11
3.73555e-08
1.64652e-10
6.45673e-11
2.94982e-12
3.39882e-08
1.49296e-08
1.95982e-05
1.52831e-09
2.5797e-11
1.95494e-10
1.05105e-09
6.45032e-10
1.56361e-42
3.85509e-09
1.4569e-11
4.33853e-09
3.41419e-09
1.94505e-12
5.36323e-09
2.59258e-08
1.04938e-09
1.92878e-09
1.03354e-08
3.12277e-05
4.59967e-11
5.72988e-09
4.71099e-39
1.73319e-09
7.52243e-13
9.94366e-09
6.23726e-08
1.61098e-42
1.81876e-08
2.97759e-08
3.45852e-10
3.59576e-80
1.93975e-09
3.9481e-34
2.97099e-10
2.63266e-09
9.1532e-12
1.08269e-07
1.2922e-08
4.71762e-09
2.75335e-09
1.09366e-08
3.9625e-10
1.16249e-09
1.93978e-09
2.4364e-08
2.63317e-10
2.02598e-11
7.3698e-11
1.1949e-13
6.14895e-10
4.15532e-09
5.25095e-08
1.82439e-09
2.02393e-08
3.55463e-09
4.4633e-09
8.55969e-10
2.43613e-10
1.71638e-12
5.66751e-40
5.6181e-08
2.19736e-08
1.21982e-11
4.1865e-08
7.61907e-09
1.06918e-07
7.44938e-09
2.18735e-08
5.72806e-10
2.35487e-10
7.32168e-10
1.26838e-11
9.09496e-09
5.23167e-08
3.58163e-09
1.39325e-08
3.05411e-09
1.24599e-09
3.21677e-12
2.03354e-27
2.2908e-51
1.86168e-08
1.54977e-10
4.24559e-10
5.26402e-09
3.49591e-09
5.17713e-10
2.70465e-10
4.52873e-09
1.29547e-07
3.64647e-08
6.47945e-10
1.26901e-11
2.67277e-09
9.50001e-10
4.8793e-37
1.41604e-09
5.24144e-09
5.53815e-09
7.63575e-12
1.93206e-10
8.97714e-49
1.30563e-11
1.212e-10
7.18618e-10
1.6152e-10
2.43567e-09
4.32388e-10
1.76182e-39
4.61168e-08
8.97371e-10
4.02484e-08
8.76151e-13
3.91686e-10
9.79962e-08
1.96036e-09
3.48346e-08
1.41592e-09
9.98999e-09
2.90583e-09
6.8728e-12
2.6502e-10
1.79688e-09
8.43215e-10
3.57277e-09
6.9985e-10
6.13701e-10
1.67321e-10
4.15124e-10
1.43161e-11
5.10654e-08
1.09386e-08
3.47155e-09
3.21624e-09
2.52984e-08
2.15112e-29
1.63595e-08
3.48912e-09
2.04255e-09
5.75939e-10
3.74164e-09
2.16989e-09
2.05669e-10
3.43424e-15
2.78763e-08
2.67857e-10
4.82593e-11
5.30275e-09
9.33696e-10
1.43476e-08
2.04e-09
1.77299e-09
4.41395e-09
9.68911e-10
1.98327e-08
4.34642e-09
1.32142e-08
1.93194e-08
1.22398e-11
5.84255e-10
1.9774e-08
1.3234e-09
1.21197e-14
6.53225e-09
1.89749e-08
3.12119e-09
1.72174e-08
1.13325e-08
9.64228e-09
6.48639e-18
1.33219e-09
1.47276e-09
1.30453e-09
4.81557e-09
1.62114e-23
2.37257e-09
1.5817e-08
1.28992e-08
3.09437e-13
2.77708e-09
5.97215e-10
2.36086e-08
8.25078e-10
9.92191e-08
2.55521e-09
1.53116e-08
5.7014e-08
3.50712e-09
5.7859e-37
2.13761e-11
1.15235e-09
1.61591e-10
1.57323e-11
1.72339e-37
1.32801e-12
4.12189e-09
2.53474e-09
2.93022e-10
1.44017e-11
1.00842e-09
1.03126e-08
1.10102e-09
2.30794e-09
1.79793e-11
2.4985e-09
1.17806e-08
2.31383e-08
1.05916e-08
2.01726e-09
7.3021e-23
1.89633e-11
2.08629e-10
3.78324e-12
2.99718e-10
1.14478e-12
3.72e-12
6.0599e-10
2.6022e-12
5.54789e-10
2.61907e-10
8.82416e-10
4.15168e-09
1.31222e-09
9.39433e-10
1.83855e-09
5.10801e-12
2.30601e-08
6.68435e-23
1.08073e-09
2.8103e-09
1.10982e-07
6.87882e-09
5.24237e-09
1.53247e-09
1.55616e-09
7.1979e-09
2.09234e-09
3.04235e-10
1.32087e-08
2.24271e-09
1.30553e-07
3.13296e-30
3.04138e-08
1.15156e-09
3.64438e-12
4.23573e-11
3.24192e-08
5.65443e-09
1.27786e-11
4.57476e-08
2.03748e-10
8.39937e-10
2.69241e-13
2.43602e-08
1.30818e-09
8.53995e-08
1.90385e-08
5.62339e-18
2.16452e-09
3.76005e-14
1.07303e-08
5.53034e-10
8.17521e-11
2.34839e-08
3.29316e-08
4.93314e-11
4.29558e-83
1.2668e-09
2.63395e-08
6.3382e-09
3.60348e-08
2.57115e-10
7.84014e-10
6.36666e-10
5.66868e-10
1.63758e-13
2.80591e-08
1.62535e-65
2.68823e-10
9.80691e-09
1.90067e-08
9.87355e-09
7.50648e-08
1.27623e-08
6.59926e-09
2.85131e-08
2.46321e-08
9.39548e-09
3.18709e-08
8.31531e-08
1.05019e-09
4.24951e-09
8.99248e-17
1.92475e-08
3.55151e-09
1.10428e-08
1.82963e-08
1.44689e-09
9.55996e-11
4.59964e-09
3.38744e-27
4.07541e-12
3.04609e-08
1.81927e-08
1.3101e-08
2.13666e-10
1.38672e-08
3.2289e-12
3.43661e-09
1.1509e-11
4.18754e-09
8.89412e-37
5.5697e-09
6.66878e-08
5.85276e-10
2.28564e-08
3.94759e-09
1.07921e-08
3.62221e-08
1.15694e-09
2.15728e-10
2.37682e-08
7.42097e-13
1.08504e-09
5.39094e-12
3.59642e-08
3.52643e-08
2.69138e-09
4.71777e-09
1.39468e-09
3.33602e-09
3.26093e-08
2.81429e-12
6.33725e-12
2.62843e-08
9.75289e-08
2.93967e-12
2.2575e-08
2.11314e-09
1.48344e-09
1.29983e-09
9.17545e-18
3.0055e-08
3.74035e-09
1.10053e-44
1.0224e-65
2.86684e-11
2.4947e-09
7.19413e-09
1.29101e-11
9.79713e-10
2.94435e-12
1.1106e-08
1.41149e-12
2.44046e-09
2.97071e-08
4.91932e-09
2.69996e-08
1.59791e-09
1.65155e-08
2.07747e-09
1.96085e-09
2.9337e-09
8.74535e-09
1.23151e-08
2.47027e-08
4.22536e-11
2.67374e-09
5.38372e-09
2.3599e-09
2.17129e-09
1.22503e-08
4.90471e-09
1.90409e-09
1.51684e-69
1.82246e-08
1.47049e-08
1.84831e-09
8.64964e-42
3.56311e-09
2.17453e-09
2.20379e-09
1.37084e-12
4.06911e-13
9.2548e-09
4.73804e-09
5.73572e-13
2.0085e-08
2.01434e-09
4.26235e-10
2.42652e-08
3.38402e-09
1.18366e-77
4.47718e-08
1.31854e-09
2.48499e-08
7.79599e-08
1.43472e-09
7.18947e-10
1.98435e-09
6.01563e-29
2.36431e-11
1.05055e-08
5.95406e-10
1.40274e-08
1.00212e-09
3.60805e-08
9.58665e-08
8.9153e-09
3.14951e-14
5.12966e-09
3.77901e-68
1.2043e-09
1.24444e-08
2.80506e-65
5.73161e-09
3.66781e-08
1.25215e-08
2.2701e-09
1.83124e-11
4.68919e-10
3.20531e-09
3.83618e-09
2.15158e-10
3.04094e-09
3.1153e-09
2.03528e-09
8.50164e-42
2.99557e-08
1.03152e-08
2.82865e-19
3.58877e-09
1.62082e-08
1.33982e-09
2.91257e-09
2.04723e-09
4.1187e-09
6.09361e-10
1.41564e-08
9.08034e-09
4.14616e-09
8.33458e-10
1.26535e-10
4.47835e-11
2.2364e-11
9.29789e-10
1.47714e-08
1.41724e-09
4.48697e-09
1.14022e-07
7.17346e-08
1.17682e-08
3.78971e-09
5.8755e-10
1.10563e-08
4.95543e-09
8.35249e-10
4.10466e-08
1.91221e-09
2.43974e-08
3.00209e-08
1.76367e-09
1.98697e-10
1.86979e-09
1.05087e-08
2.32585e-09
1.58502e-08
3.00683e-09
1.02292e-08
1.08133e-09
4.52207e-11
5.17251e-10
8.83521e-13
4.63397e-41
2.06311e-08
7.23018e-10
1.1632e-11
5.31405e-09
2.6106e-09
1.58318e-10
1.70094e-10
2.4365e-09
1.21565e-08
2.71862e-12
2.09015e-09
4.76013e-09
1.7489e-08
1.24861e-08
5.33258e-09
3.33751e-10
1.15479e-09
8.69099e-09
5.66028e-30
7.83792e-09
7.17425e-10
6.73984e-10
1.2683e-08
1.01151e-07
3.18682e-08
1.16298e-11
3.13729e-10
6.00383e-11
2.04609e-11
1.30222e-09
5.3243e-10
3.49608e-10
2.77463e-11
1.52727e-10
4.95477e-10
1.94422e-22
9.88668e-09
1.56326e-09
4.56104e-11
4.27843e-09
6.64261e-08
3.99355e-41
4.4854e-08
3.90467e-08
2.72854e-10
1.73363e-08
7.85757e-09
3.05148e-09
1.40687e-09
1.02679e-08
2.44321e-12
1.98566e-10
8.94953e-10
2.22355e-09
2.48956e-10
5.73984e-09
1.8408e-17
9.33676e-10
7.64862e-08
1.87297e-12
5.94847e-09
7.69587e-10
4.26834e-08
6.46525e-10
3.13722e-09
1.49434e-11
1.4641e-09
1.33471e-82
3.46943e-10
1.30106e-34
1.87949e-09
3.06974e-10
4.91994e-35
5.42585e-10
7.97962e-26
3.44569e-08
5.37756e-10
1.13519e-48
3.15952e-09
6.63274e-30
4.71528e-08
4.79661e-09
6.16413e-34
8.75766e-34
1.59979e-08
2.67961e-07
1.08502e-11
1.65807e-09
1.4125e-11
7.87586e-10
1.03039e-19
1.41185e-10
5.06002e-12
9.44868e-09
3.60866e-09
4.36545e-49
4.5171e-10
5.31206e-10
1.36128e-08
6.52057e-11
2.31857e-17
4.09815e-09
5.64445e-15
1.15628e-09
4.43111e-08
6.2395e-08
5.52651e-10
4.45077e-08
4.80929e-10
1.53046e-08
1.3282e-09
4.30062e-09
3.21167e-08
5.83118e-10
2.2156e-11
4.59869e-10
5.33158e-08
6.84092e-10
1.24469e-13
1.09149e-08
1.09656e-17
2.08821e-11
1.09314e-09
1.64926e-12
9.41281e-10
2.22303e-08
2.84348e-09
1.28536e-09
9.95071e-10
4.16474e-12
6.3702e-10
1.80488e-09
2.87386e-08
7.60351e-08
1.23059e-08
4.25596e-09
1.4096e-11
6.85492e-09
8.41877e-10
1.09244e-08
2.39046e-09
5.74567e-10
2.25219e-09
7.33646e-11
3.26754e-10
1.65905e-08
1.26201e-17
2.15768e-09
5.75326e-08
8.07688e-09
1.52603e-09
1.06678e-09
1.48363e-08
2.97772e-08
2.73415e-09
5.32173e-10
3.74763e-09
4.1227e-56
1.86962e-42
3.73442e-09
2.97887e-09
6.25429e-10
1.74769e-08
1.4372e-12
1.29825e-09
9.56068e-09
1.47142e-13
1.18068e-08
4.58561e-08
4.26402e-66
1.89644e-09
4.88136e-10
4.27753e-63
1.11792e-08
9.43795e-09
3.7952e-15
5.71098e-09
8.26724e-09
2.10813e-09
6.20305e-15
3.8384e-08
2.94454e-18
7.7469e-10
3.89379e-10
2.68183e-08
3.40912e-09
1.56311e-09
9.77037e-12
2.30484e-13
1.42966e-08
1.89673e-09
1.54466e-09
3.32189e-08
5.01809e-09
2.92932e-09
1.19091e-14
7.36234e-10
1.16766e-07
2.12831e-10
1.7652e-08
3.03103e-09
6.17671e-11
2.82697e-09
2.95781e-09
6.54796e-09
3.82221e-12
3.29658e-09
8.61057e-09
1.67719e-19
3.43061e-13
5.69694e-09
4.22358e-22
1.78129e-12
1.54772e-11
1.97223e-08
6.54555e-10
3.54117e-09
1.3107e-09
1.13494e-14
2.56964e-08
7.20975e-09
8.80125e-10
1.43619e-08
4.53541e-09
1.20437e-09
1.35177e-08
4.16998e-09
2.80866e-12
7.63879e-13
8.67195e-09
7.1195e-08
1.19809e-08
1.91972e-09
6.75222e-10
5.89199e-10
6.50883e-08
2.61339e-11
6.28659e-09
7.39036e-10
1.19355e-08
1.70974e-19
5.61894e-10
4.16608e-09
5.11393e-79
3.21634e-53
8.3089e-10
3.92215e-15
1.18776e-08
3.52415e-11
2.21727e-09
4.1233e-09
1.13268e-08
3.7178e-08
5.17264e-08
3.73799e-25
2.15575e-08
4.76568e-08
2.74427e-10
1.36923e-08
3.66139e-11
1.43569e-10
2.42192e-09
1.1625e-07
1.10278e-08
6.52039e-10
2.39924e-13
1.22845e-08
1.40066e-09
5.99738e-08
2.37953e-09
2.68805e-12
6.31637e-10
1.71325e-21
1.48361e-07
1.85293e-10
8.71295e-09
3.9572e-09
5.54822e-10
1.07044e-12
3.24987e-09
1.3574e-11
4.52921e-09
1.88837e-08
3.66041e-08
1.44125e-08
2.05682e-10
4.36815e-10
1.05013e-09
1.19487e-08
1.16025e-11
1.48286e-11
2.23099e-09
1.14708e-07
1.08565e-08
1.15821e-10
4.17912e-09
2.12349e-09
1.13413e-09
9.27642e-09
4.46915e-10
3.55139e-10
1.67546e-09
1.27319e-52
4.5866e-09
8.66943e-34
6.01541e-08
2.22927e-08
1.91092e-09
2.17846e-08
2.82722e-08
7.07785e-10
2.76652e-08
5.73562e-09
1.5499e-09
8.49729e-10
2.33495e-09
1.69367e-09
5.59142e-67
4.13751e-10
2.6357e-08
2.87644e-09
2.16015e-08
1.46801e-21
7.17025e-10
2.99369e-82
1.23165e-08
9.93741e-09
1.45614e-09
9.66923e-12
9.02409e-12
5.21621e-10
1.75931e-12
3.13295e-09
4.09435e-08
1.77696e-10
9.24377e-10
5.94381e-13
1.34017e-08
2.24021e-08
3.1643e-08
1.77866e-28
3.12283e-08
5.41207e-09
6.37342e-10
2.31133e-09
1.33321e-09
7.07982e-09
8.2849e-09
2.32347e-08
2.54172e-10
7.83994e-10
1.43729e-08
1.93741e-08
3.23157e-10
1.70043e-68
1.67627e-10
1.51154e-08
1.88506e-10
1.63385e-08
1.16471e-10
2.58691e-09
1.66613e-08
4.5125e-08
3.07148e-09
7.34395e-48
5.99833e-09
2.23179e-10
7.1499e-10
9.75844e-08
5.93659e-10
3.51429e-11
1.73387e-08
2.68049e-08
8.4376e-10
5.39072e-10
1.62237e-08
5.75746e-09
1.61206e-08
5.93566e-10
9.27164e-10
2.28599e-09
7.03253e-12
2.37296e-09
3.17623e-10
1.40691e-07
5.14278e-09
9.45094e-09
5.57389e-10
4.49873e-12
4.8856e-09
3.40395e-09
7.12871e-10
1.13607e-09
2.62268e-08
4.09085e-09
2.38584e-12
1.89283e-09
1.10427e-07
8.12854e-10
8.31772e-10
1.61292e-08
1.39789e-08
1.16283e-45
2.28249e-08
1.83185e-08
3.53203e-09
3.75788e-12
9.33808e-08
4.47569e-10
8.61377e-10
5.48214e-08
1.43604e-09
6.31938e-08
5.76169e-09
1.71075e-11
9.02031e-11
8.97677e-13
8.55667e-09
2.63999e-12
4.74426e-10
3.06542e-10
1.16903e-09
1.04642e-08
2.66572e-76
1.67364e-09
5.68964e-09
1.14285e-09
1.73526e-10
1.2055e-10
3.826e-09
5.26066e-10
1.35852e-48
3.15622e-08
1.33738e-07
4.03728e-08
8.82752e-13
1.05946e-08
8.30533e-14
6.41531e-12
1.00377e-09
2.7085e-09
2.19855e-08
6.78795e-09
2.09627e-11
5.41014e-09
1.34546e-08
2.04971e-09
7.85198e-09
3.80411e-09
1.7321e-09
4.53457e-09
1.04522e-11
7.47851e-17
7.57154e-08
9.9523e-15
2.04312e-07
4.55714e-09
8.79342e-09
1.09847e-09
1.13721e-12
9.70801e-10
2.75601e-09
1.52795e-09
1.84585e-53
1.0153e-13
9.31695e-53
2.69861e-10
3.04972e-08
1.13934e-07
6.9529e-11
5.91227e-09
4.09208e-09
3.61395e-08
6.13316e-09
2.20501e-11
3.40695e-09
3.88768e-09
6.36353e-10
2.75254e-09
9.10268e-10
2.1675e-08
2.09692e-10
2.98058e-12
7.3008e-10
7.08135e-08
8.02372e-10
5.01048e-08
2.41474e-09
1.36858e-08
2.01968e-08
3.89081e-12
2.54183e-08
2.29118e-08
1.09596e-11
3.18537e-11
6.45969e-08
7.70413e-09
1.82767e-08
2.42279e-08
8.83511e-11
2.34424e-08
1.92563e-45
4.49171e-09
5.36189e-09
5.00062e-08
5.42665e-10
2.13592e-09
4.54205e-54
1.54558e-08
5.3666e-12
1.5403e-22
6.39402e-09
1.8155e-08
2.95328e-09
1.13865e-09
7.28268e-08
1.0997e-79
4.1258e-09
3.07644e-09
8.50002e-09
1.53605e-09
9.65124e-10
4.605e-09
8.0759e-12
5.12269e-09
1.06292e-08
1.87999e-12
3.4969e-09
9.88501e-09
8.06414e-09
4.74501e-09
6.06732e-08
2.38935e-10
7.24067e-32
3.93471e-10
4.67132e-09
1.04365e-09
2.53329e-09
4.67e-09
8.26804e-08
1.61524e-15
3.07893e-40
1.39556e-08
3.04539e-10
6.71138e-11
5.149e-08
8.14129e-10
1.49522e-08
8.989e-09
7.64741e-10
7.49505e-10
9.39845e-51
2.32723e-09
9.23288e-09
1.20344e-09
1.10176e-07
1.55051e-10
3.24375e-08
5.33254e-09
3.69711e-11
2.61345e-08
7.59439e-09
3.20895e-09
6.07073e-09
8.6265e-10
1.19968e-08
2.54236e-09
1.18215e-08
4.31189e-09
6.70661e-08
3.98352e-10
9.68828e-09
1.04591e-08
3.28126e-09
7.23582e-08
2.48896e-08
1.32175e-08
1.52454e-09
1.35104e-09
1.02911e-08
1.0065e-10
8.20588e-29
1.16419e-08
1.54823e-09
1.47783e-10
2.60689e-09
2.46208e-09
5.08907e-09
1.61016e-09
5.31918e-12
5.80921e-08
1.33554e-37
7.84539e-08
5.24732e-09
9.24196e-09
1.68563e-19
2.51771e-09
2.88314e-09
5.20487e-09
1.87398e-09
3.0893e-09
6.2511e-12
7.06692e-09
1.61527e-08
4.39632e-08
2.48715e-10
4.82151e-10
7.37102e-09
6.45046e-10
5.39361e-10
1.01148e-43
1.5025e-08
9.76438e-41
2.42655e-08
6.24136e-10
6.02593e-09
1.23694e-09
8.21355e-10
7.33644e-18
3.14626e-15
1.346e-13
4.80702e-10
9.64549e-08
1.11667e-08
1.28836e-19
2.82864e-08
2.30108e-09
1.24131e-09
2.11991e-09
2.0104e-10
1.05905e-09
4.31698e-15
4.56116e-12
3.058e-09
8.72479e-12
1.82472e-09
2.14243e-22
2.87015e-78
1.8463e-10
1.00065e-08
1.61856e-08
1.34495e-12
1.77719e-11
7.95019e-11
1.40183e-08
5.29736e-17
6.24205e-11
2.29236e-08
1.48862e-08
5.07931e-13
6.23758e-09
1.28227e-09
3.08832e-09
9.56398e-36
5.53086e-09
7.81397e-29
4.80568e-09
1.96816e-12
9.63481e-09
1.04955e-07
1.65116e-08
8.64708e-09
5.59024e-11
7.62593e-11
2.4293e-09
1.43959e-11
4.86497e-09
5.96642e-08
7.15318e-09
8.26858e-09
3.96628e-14
4.64899e-09
1.72379e-10
7.16075e-09
9.03475e-12
5.80083e-10
5.12643e-10
4.28829e-09
9.59747e-08
6.3485e-09
1.42879e-08
3.41053e-09
1.38453e-08
6.03453e-09
1.13216e-30
2.52419e-09
1.69182e-19
2.10766e-09
6.5859e-09
8.33474e-10
1.54967e-08
1.59359e-08
8.83583e-09
5.08242e-10
1.86734e-08
1.49057e-08
1.31851e-10
2.06225e-32
1.00232e-07
1.16083e-07
9.46866e-09
7.6565e-10
1.20573e-08
7.42351e-12
1.46655e-10
1.11759e-08
2.55916e-09
2.86255e-08
1.1492e-08
3.49068e-10
4.20644e-37
1.03077e-10
1.27149e-09
1.30452e-13
3.49092e-10
2.25303e-09
6.22565e-72
3.86656e-09
4.5337e-08
7.61725e-10
1.78757e-09
2.66449e-09
1.90519e-08
3.24818e-09
4.37572e-20
6.92411e-09
1.09744e-08
2.3077e-09
1.38554e-08
8.95939e-31
5.66356e-09
3.65938e-36
5.90837e-08
4.15727e-09
9.81877e-13
8.71888e-23
7.09327e-37
2.20728e-09
4.77258e-09
2.12209e-08
9.15344e-09
1.15011e-07
7.93483e-20
9.639e-11
1.18357e-09
3.35876e-08
3.70496e-10
4.61032e-08
5.27256e-17
2.88944e-10
8.86175e-10
1.84882e-08
1.24552e-08
2.00406e-12
2.34969e-12
1.78902e-08
6.52963e-14
2.03389e-09
2.8004e-09
1.44773e-08
5.94745e-10
1.9214e-09
1.26029e-08
9.18685e-11
1.79129e-09
8.72751e-10
6.94544e-10
1.49476e-08
4.63953e-09
5.31232e-08
1.75808e-10
5.45353e-10
9.51705e-11
1.82037e-09
1.37603e-08
3.21601e-08
2.39128e-09
1.97355e-09
2.02208e-08
9.89961e-10
7.04065e-09
1.05768e-07
1.66486e-09
3.996e-09
9.12889e-10
9.45803e-10
1.16286e-09
2.75864e-33
4.70485e-09
7.98794e-10
1.79228e-08
1.53035e-68
1.98844e-09
2.47404e-09
1.38747e-09
7.08991e-09
8.08306e-09
3.20739e-10
1.8762e-08
1.79246e-37
3.36281e-08
5.2183e-09
2.11961e-09
2.5509e-09
3.56602e-09
1.4806e-08
2.93372e-10
3.28076e-09
9.24112e-08
3.94263e-17
1.45905e-09
1.0201e-09
3.73277e-08
8.37952e-08
5.49132e-10
2.08063e-09
7.19716e-10
1.30795e-09
2.18497e-08
6.94154e-10
7.86147e-09
1.3536e-09
9.52744e-10
8.90916e-10
2.43815e-08
2.2282e-09
1.58764e-08
5.05443e-08
2.85284e-13
2.30621e-08
7.26227e-15
4.92553e-08
1.58314e-09
7.14591e-09
6.48593e-33
1.77802e-09
9.46611e-12
3.3435e-20
1.33627e-12
5.88313e-09
1.19749e-10
8.93567e-69
7.05319e-10
4.513e-08
1.15544e-07
1.10484e-11
2.01128e-14
1.179e-08
1.3276e-08
4.63472e-08
6.82204e-58
1.34611e-09
4.69545e-10
1.41752e-10
5.77898e-09
2.9955e-10
6.93073e-08
4.37862e-08
4.11362e-13
8.4083e-10
1.09966e-08
1.41521e-09
2.40965e-20
2.99774e-10
2.57809e-08
5.00305e-09
1.28469e-09
1.39678e-12
4.51065e-10
2.07755e-08
7.91847e-09
1.13357e-09
1.34344e-09
1.73659e-08
4.26673e-11
5.02943e-13
1.66679e-11
1.19551e-09
6.53563e-08
2.84738e-10
2.14976e-08
5.88693e-10
1.93569e-08
2.07248e-08
3.04958e-10
2.21909e-11
6.68541e-09
5.43639e-08
2.67669e-12
1.07891e-08
4.42892e-09
6.50411e-10
2.65659e-09
4.83283e-09
3.28395e-11
1.03711e-07
1.20476e-09
2.03637e-09
4.72473e-11
1.44564e-09
9.12295e-10
1.35662e-08
1.10235e-09
6.16019e-08
2.89445e-10
2.87396e-09
4.84572e-09
1.62116e-08
5.13325e-08
2.16948e-09
7.56787e-08
1.89798e-08
9.95703e-08
1.52532e-08
1.19304e-07
4.3031e-08
1.68942e-08
8.51067e-10
1.78789e-09
4.39023e-09
9.10784e-09
3.77784e-09
8.97058e-09
7.33845e-10
1.01859e-08
8.73931e-18
3.06479e-12
5.85532e-18
9.34621e-10
1.88037e-10
2.37846e-09
3.77694e-08
5.28718e-09
6.41354e-10
8.69688e-09
6.44776e-10
9.97765e-10
6.69804e-09
5.7713e-08
1.74255e-12
4.49012e-09
8.87412e-10
9.85965e-10
1.72309e-09
7.72137e-10
6.1058e-13
4.70401e-08
1.65634e-08
1.07945e-07
5.00579e-27
1.62665e-14
1.77308e-09
9.81232e-09
8.95601e-09
1.74749e-09
3.52824e-09
4.55236e-09
1.24905e-10
3.76915e-08
1.64548e-09
3.55113e-08
1.09055e-26
1.23565e-08
1.51115e-10
3.1501e-08
2.04203e-10
7.71876e-09
6.95042e-10
1.29326e-80
4.63975e-09
4.74536e-08
1.14759e-09
5.65833e-09
1.00744e-08
7.55009e-09
8.75129e-10
2.81757e-09
1.24854e-09
3.83313e-10
1.31581e-11
2.53404e-08
5.26827e-08
1.16457e-08
8.0819e-10
7.11672e-24
7.48794e-09
2.03857e-08
1.64178e-09
3.7959e-08
2.02991e-09
1.34845e-09
2.01527e-09
9.75566e-10
1.48985e-12
9.04498e-10
4.10334e-78
1.90257e-08
1.81752e-08
1.12103e-09
6.27846e-09
2.43053e-09
3.8714e-08
4.76465e-10
3.40071e-10
1.07077e-09
2.1454e-08
5.6882e-09
5.52732e-10
1.4235e-08
1.03039e-09
4.12477e-08
3.89336e-12
5.11219e-09
3.69286e-54
3.68699e-08
5.53636e-09
1.12463e-09
2.50675e-09
2.05394e-12
3.31185e-09
6.13574e-08
1.05658e-07
3.75683e-09
8.52135e-10
5.4073e-09
3.82889e-09
9.29005e-55
4.21886e-08
5.73159e-09
4.16115e-20
2.66289e-08
1.06966e-08
1.41103e-11
3.59791e-08
2.12751e-08
2.2425e-10
9.45862e-09
1.90738e-14
5.32804e-09
2.38893e-09
5.62116e-11
1.99092e-09
2.00666e-09
4.9974e-08
4.73021e-10
9.08272e-09
5.6381e-10
1.85635e-09
1.19171e-08
6.79255e-10
3.44407e-11
7.53232e-11
2.79035e-08
6.29949e-17
2.02544e-12
4.7143e-09
2.06475e-08
2.08107e-08
9.62558e-10
3.56997e-08
6.53937e-08
4.82339e-09
1.66683e-08
2.42954e-08
5.34078e-08
5.68694e-09
1.20091e-08
2.98373e-10
1.48714e-12
2.4138e-08
5.498e-10
8.8223e-10
1.1534e-07
5.33655e-10
1.06333e-10
1.02875e-09
1.65786e-08
7.30552e-08
2.98681e-10
7.9198e-09
1.15358e-06
1.98227e-10
8.19759e-09
1.51159e-07
8.21889e-10
1.4872e-09
2.32278e-08
2.55755e-08
1.38654e-11
2.30448e-09
1.43706e-44
2.46817e-08
9.84537e-10
2.15816e-09
1.04492e-07
3.9598e-09
5.18542e-09
2.15008e-12
2.01789e-08
2.2882e-17
3.43629e-40
2.42243e-40
2.68539e-09
1.98735e-11
9.84156e-09
1.33156e-09
1.29585e-10
5.72943e-11
1.53555e-08
1.16176e-10
3.05405e-43
2.60799e-08
1.81089e-11
1.23687e-09
3.58402e-09
2.31898e-08
8.34001e-12
6.83215e-10
3.30302e-09
1.542e-08
5.28054e-10
2.48786e-17
1.20649e-09
9.39282e-10
2.12795e-20
1.46713e-09
2.07525e-08
1.67874e-13
2.76784e-08
1.42541e-12
1.98215e-09
9.46735e-23
1.93181e-11
2.4538e-08
5.42344e-09
4.98789e-09
2.34834e-12
1.57345e-09
1.63067e-17
1.25965e-08
3.60809e-08
2.04006e-09
1.93648e-12
1.36446e-09
2.06205e-09
2.04525e-09
6.5153e-12
1.08271e-08
3.91584e-09
1.15971e-08
5.84804e-10
6.43298e-15
1.86528e-09
2.09568e-09
4.92855e-09
9.88872e-18
4.57426e-09
1.13551e-08
5.64421e-26
6.65269e-08
4.15985e-68
7.01813e-08
3.28669e-10
9.08171e-44
2.02883e-09
4.46389e-10
4.99144e-11
3.95135e-15
1.11244e-08
1.88679e-09
3.93968e-10
1.21999e-09
6.71887e-11
1.59737e-12
9.69258e-10
6.06923e-09
1.12987e-09
1.65693e-09
1.71193e-11
7.53405e-11
8.96192e-10
3.21584e-08
4.01322e-08
2.75323e-08
2.33338e-09
9.70212e-10
1.51883e-17
1.31544e-10
3.84645e-09
2.1143e-08
5.63053e-09
6.16809e-09
2.10743e-13
9.74225e-09
8.86222e-67
8.56947e-13
6.67015e-25
3.04206e-10
2.89179e-08
1.92098e-10
2.14211e-13
1.97294e-09
3.00465e-09
9.52561e-08
9.6994e-09
3.8002e-10
9.0544e-18
1.02906e-08
1.04037e-08
2.3437e-09
1.53746e-09
1.65783e-09
2.38298e-09
4.92518e-08
1.81225e-08
2.75713e-08
2.91721e-09
9.12057e-09
3.74544e-10
2.29577e-41
4.6104e-13
2.17403e-08
1.39757e-40
4.43012e-10
4.34732e-08
2.5574e-44
6.13913e-09
9.22536e-09
9.33795e-09
1.93502e-10
8.07196e-08
7.57436e-10
1.40643e-08
2.07935e-10
1.80137e-08
4.44127e-10
3.49425e-09
2.88063e-09
7.59689e-41
1.95313e-08
2.40345e-08
2.05197e-08
1.55651e-12
1.90171e-09
1.68334e-25
4.37048e-09
1.06623e-09
3.50474e-09
1.19446e-08
4.98039e-09
9.64892e-10
3.81728e-20
2.075e-08
2.00672e-09
4.50227e-08
2.62584e-08
1.30182e-08
7.37323e-09
5.14197e-67
5.92947e-09
4.15404e-08
3.70645e-08
4.6828e-09
9.48545e-08
3.13688e-08
6.88074e-08
2.50437e-09
4.78809e-09
1.04264e-09
4.25112e-40
3.88208e-10
1.83021e-09
6.5842e-08
8.74659e-10
6.58298e-10
3.53848e-09
4.67627e-08
1.41117e-08
3.05936e-09
5.1933e-08
8.10926e-09
3.11125e-08
1.09409e-09
1.25831e-10
1.14431e-08
1.98338e-09
2.07367e-12
2.16518e-08
7.53644e-09
1.56739e-08
8.00054e-10
3.58336e-08
1.27408e-07
3.80796e-23
4.95811e-09
3.03903e-09
3.12578e-09
9.50551e-09
7.58651e-09
8.81717e-12
2.94124e-08
3.31584e-68
2.75012e-20
2.00864e-09
1.89617e-08
3.07735e-09
3.15028e-08
1.39107e-09
5.72728e-09
6.42114e-09
1.00521e-07
3.25568e-08
2.86643e-09
1.40685e-08
1.60929e-08
2.58942e-09
2.44672e-08
4.16025e-12
2.12134e-10
9.04963e-15
3.73759e-10
1.27557e-25
6.99198e-10
9.61278e-10
6.90566e-09
1.04219e-07
1.08568e-08
2.556e-09
1.92054e-08
1.7929e-12
7.98969e-15
2.79004e-09
1.14341e-08
3.36814e-09
2.88408e-09
3.83597e-09
3.54607e-10
6.55296e-09
1.51633e-10
1.2453e-11
2.68392e-09
3.96293e-11
4.85928e-09
1.75411e-08
6.88656e-12
5.06263e-10
5.52605e-15
2.02878e-10
5.70445e-09
6.92466e-11
1.20327e-11
1.3236e-10
1.9717e-08
5.18869e-08
6.41909e-15
1.18719e-08
3.06193e-10
7.82138e-42
6.2591e-09
1.51345e-10
1.52994e-08
8.85987e-12
2.52381e-12
1.01468e-09
2.32576e-09
1.38557e-08
7.58329e-08
1.13738e-08
3.8231e-45
3.15952e-09
2.88862e-08
9.55002e-09
1.03385e-09
2.57197e-17
6.22634e-09
2.19282e-80
3.34738e-09
1.03061e-08
1.4674e-09
9.70279e-10
1.69237e-08
8.83737e-10
4.93108e-09
3.4973e-09
6.85405e-10
5.26876e-10
1.1648e-39
9.33289e-08
2.86542e-09
1.20523e-08
8.00376e-23
1.71123e-09
1.0007e-08
1.75592e-08
4.59872e-20
9.81608e-08
6.20575e-10
1.04626e-07
1.14758e-07
3.04963e-09
6.7935e-08
1.70805e-08
8.88133e-10
1.24156e-09
1.31243e-08
3.86268e-10
1.11215e-11
4.75004e-09
1.61008e-08
7.02198e-09
6.17867e-09
4.32422e-08
3.95385e-09
3.73334e-09
7.11983e-08
1.47615e-08
4.42757e-09
1.1389e-09
4.95472e-12
2.55524e-08
1.47568e-08
1.8455e-10
4.20313e-09
8.77515e-09
6.44292e-45
1.39021e-09
1.83453e-10
1.02764e-10
1.62858e-17
1.18638e-08
1.42508e-08
2.54294e-12
6.38818e-10
1.48683e-09
1.66496e-09
7.93905e-10
6.80024e-10
3.50225e-09
6.91313e-17
1.39119e-12
8.47633e-09
4.98844e-09
1.99396e-67
1.44609e-08
3.64847e-12
4.58688e-10
1.17559e-08
2.59999e-09
9.72245e-10
1.05643e-09
3.10687e-25
3.76277e-15
6.65197e-09
2.76532e-09
4.75993e-23
2.08699e-12
3.31351e-09
2.906e-14
1.51778e-09
2.33152e-09
5.75994e-10
3.60905e-09
4.74524e-18
2.93661e-10
6.77221e-11
9.22437e-09
3.05171e-09
7.6989e-12
5.67771e-08
1.79902e-08
2.56674e-09
1.52852e-09
1.25429e-09
9.21638e-81
2.94722e-09
3.81149e-09
1.84182e-08
1.19956e-08
8.74946e-09
4.7933e-09
8.35883e-18
3.95159e-09
1.04549e-23
6.9148e-11
4.4468e-09
6.34536e-65
5.89481e-09
1.9883e-08
4.08677e-09
2.79465e-09
1.04963e-08
4.36109e-08
4.0355e-09
1.02718e-07
1.0477e-09
6.05105e-10
3.19778e-09
8.10443e-81
6.64289e-12
7.54718e-08
6.03498e-10
2.64825e-10
1.1581e-10
1.36287e-08
1.21145e-10
5.68468e-09
3.2089e-10
3.57879e-09
1.01402e-08
1.54443e-08
2.03546e-09
4.49225e-09
4.95073e-09
1.40786e-12
7.6019e-10
1.20607e-10
1.39608e-12
2.97442e-09
2.1856e-09
9.08044e-09
1.07546e-08
4.55288e-09
1.46056e-12
1.27686e-08
5.60789e-10
4.09325e-09
4.99655e-10
9.58332e-09
2.31467e-12
8.11187e-10
9.17552e-09
7.27892e-09
1.90825e-08
2.60989e-10
1.47596e-08
7.41245e-10
8.81065e-09
9.63293e-18
1.3849e-09
4.16421e-08
9.46715e-12
7.18744e-10
2.07874e-09
1.89323e-08
6.14055e-10
7.33632e-12
4.60464e-08
5.07568e-09
3.77826e-10
1.03974e-08
0.000114852
3.26686e-09
3.20422e-08
1.8277e-09
1.10774e-09
4.86769e-10
1.90371e-07
1.77964e-10
8.78296e-09
4.87262e-09
2.83497e-11
6.77234e-08
5.86339e-08
8.76881e-08
4.09526e-12
1.19987e-08
3.40814e-08
5.80166e-10
2.53135e-08
9.9244e-10
2.83344e-12
1.97431e-12
1.13155e-09
1.33708e-15
1.12906e-12
3.08844e-11
1.6921e-08
3.18828e-08
2.59148e-09
9.77836e-11
2.5777e-09
1.27586e-09
1.44884e-10
1.08958e-12
9.82806e-09
1.94193e-09
9.84834e-09
8.10854e-08
1.48556e-08
3.76726e-49
7.6219e-09
6.08619e-10
9.62158e-10
2.98131e-10
5.74179e-09
1.33879e-09
4.16694e-52
2.97371e-08
3.61153e-08
5.18172e-09
5.27058e-05
3.62621e-09
2.22873e-09
1.29741e-08
2.85787e-09
7.48239e-09
2.44663e-08
8.61715e-10
1.95165e-52
3.20387e-11
3.09706e-10
1.92601e-09
1.20781e-08
6.83662e-08
3.37579e-08
5.09217e-12
6.062e-09
1.11899e-08
2.6606e-08
1.35211e-12
2.27079e-09
1.44607e-58
1.51377e-09
7.87582e-09
1.20153e-11
3.52433e-12
3.82469e-08
7.62162e-10
1.08935e-08
7.03312e-13
2.45736e-08
2.29831e-08
5.00605e-09
1.30616e-08
1.64881e-08
4.16657e-09
3.07303e-09
3.9793e-11
1.20092e-10
4.14088e-09
2.06529e-09
7.27238e-09
4.16228e-09
1.82259e-08
5.81031e-10
1.95633e-34
1.71744e-45
4.95937e-08
1.27073e-08
3.19179e-09
7.90655e-09
8.73651e-09
1.22879e-25
3.00629e-09
6.92416e-10
1.28521e-10
2.60221e-08
2.70756e-10
2.79256e-10
1.43573e-09
1.06446e-09
2.65635e-22
3.78394e-09
7.04268e-10
1.05739e-87
6.99193e-10
8.08109e-09
2.72283e-09
1.33407e-12
6.75908e-09
3.90937e-09
1.98694e-08
6.38154e-10
1.28318e-09
2.27198e-08
1.59431e-15
8.80728e-11
2.10958e-08
1.03719e-08
1.6737e-09
2.03032e-08
8.28542e-10
1.04446e-24
1.77132e-08
3.03697e-09
3.51052e-09
1.26749e-09
4.15319e-09
2.3986e-09
9.51467e-09
4.66288e-11
6.61209e-11
4.09701e-11
2.13738e-08
1.19109e-08
8.35852e-08
3.05845e-08
1.38031e-45
2.47854e-09
1.30662e-11
1.19247e-09
4.46574e-10
2.35587e-09
1.85677e-10
1.04526e-11
2.59434e-09
4.8685e-13
7.06155e-08
2.74261e-08
4.77541e-09
6.18351e-08
2.499e-08
3.3178e-11
1.3534e-09
4.4285e-09
1.60556e-09
3.59582e-11
2.23736e-08
2.69335e-09
2.24984e-08
3.1654e-08
2.50787e-10
7.99521e-10
2.39529e-30
2.07927e-08
9.3521e-09
2.72591e-12
9.44137e-10
1.90247e-10
8.98151e-09
9.66313e-09
2.0658e-09
1.49411e-12
6.99189e-09
1.6013e-08
1.67659e-12
6.11252e-09
8.23479e-09
7.21883e-10
6.23986e-08
8.76362e-13
3.30433e-08
2.22374e-12
2.55221e-08
7.04467e-17
8.53046e-10
1.52943e-08
2.1348e-09
1.16868e-07
8.87792e-12
1.57665e-08
8.27454e-11
1.70137e-08
8.01129e-10
4.05736e-10
1.5401e-09
5.95316e-08
9.36303e-09
1.41476e-23
8.05068e-10
5.7436e-10
7.37572e-08
3.51779e-08
9.89112e-12
9.1659e-10