x,y,z,T
0.45,0.5,0,-1.75396e-39
1,0.65,0,-127140
1,1.365,0,-7.64241e-129
1,2.1,0,0.753089
