/*--------------------------------*- C++ -*----------------------------------*\
| =========                 |                                                 |
| \\      /  F ield         | OpenFOAM: The Open Source CFD Toolbox           |
|  \\    /   O peration     | Version:  2112                                  |
|   \\  /    A nd           | Website:  www.openfoam.com                      |
|    \\/     M anipulation  |                                                 |
\*---------------------------------------------------------------------------*/
FoamFile
{
    version     2.0;
    format      ascii;
    arch        "LSB;label=32;scalar=64";
    class       volScalarField;
    location    "300";
    object      k;
}
// * * * * * * * * * * * * * * * * * * * * * * * * * * * * * * * * * * * * * //

dimensions      [0 2 -2 0 0 0 0];

internalField   nonuniform List<scalar> 
12225
(
0.539621
0.802659
0.971733
1.06013
1.0932
1.08924
1.07678
1.05053
1.02114
0.992366
0.965544
0.940552
0.919015
0.898262
0.882762
0.865172
0.856543
0.840692
0.3831
0.385088
0.399214
0.414331
0.428435
0.444478
0.459559
0.478965
0.497304
0.521387
0.538257
0.560541
0.575016
0.595609
0.6075
0.626377
0.63504
0.65217
0.373246
0.3715
0.370345
0.368281
0.365004
0.35992
0.355189
0.350138
0.346151
0.342777
0.340152
0.337977
0.336344
0.335127
0.334226
0.333756
0.333228
0.333636
0.373848
0.370552
0.368703
0.366349
0.364133
0.360601
0.357372
0.353116
0.349436
0.345019
0.341371
0.337109
0.333641
0.329616
0.326362
0.322703
0.319695
0.316484
0.374035
0.371037
0.368979
0.36671
0.364799
0.36222
0.359905
0.356974
0.354379
0.351266
0.348564
0.345386
0.3427
0.339579
0.337011
0.333996
0.331633
0.328761
0.374
0.371395
0.369301
0.367123
0.365272
0.363128
0.361187
0.35894
0.356889
0.35457
0.352479
0.350137
0.34806
0.345733
0.343731
0.341452
0.339586
0.337383
0.373927
0.371543
0.369449
0.367348
0.36549
0.36355
0.361771
0.35987
0.3581
0.356212
0.354462
0.352597
0.350885
0.349049
0.347402
0.34561
0.344064
0.342328
0.373877
0.371581
0.369481
0.367428
0.365552
0.363698
0.361977
0.360245
0.358616
0.356961
0.355403
0.35381
0.352317
0.350778
0.349355
0.34787
0.346534
0.345102
0.373851
0.371581
0.369468
0.367435
0.365542
0.363716
0.362007
0.360344
0.358774
0.357233
0.355772
0.354327
0.352959
0.351593
0.350308
0.349011
0.34781
0.346575
0.373839
0.371573
0.369447
0.367418
0.365511
0.363689
0.361974
0.360331
0.358776
0.357278
0.355857
0.354481
0.353173
0.351898
0.350687
0.349497
0.348375
0.347261
0.373833
0.371567
0.36943
0.367399
0.365481
0.363656
0.361931
0.360287
0.35873
0.357243
0.355831
0.354478
0.353191
0.351954
0.350776
0.349637
0.348554
0.347504
0.37383
0.371562
0.369419
0.367385
0.365459
0.36363
0.361897
0.360249
0.358686
0.357197
0.355782
0.354432
0.353148
0.35192
0.35075
0.349629
0.348558
0.347532
0.373828
0.371559
0.36941
0.367373
0.365443
0.36361
0.361871
0.360218
0.358649
0.357155
0.355735
0.354383
0.353095
0.351868
0.350697
0.34958
0.348512
0.347493
0.373827
0.371556
0.369404
0.367363
0.365428
0.363591
0.361848
0.360191
0.358616
0.357118
0.355693
0.354336
0.353043
0.351811
0.350636
0.349517
0.348447
0.347427
0.373826
0.371553
0.369398
0.367355
0.365416
0.363576
0.361828
0.360168
0.358588
0.357086
0.355656
0.354295
0.352997
0.351761
0.350582
0.349458
0.348384
0.347361
0.373826
0.371551
0.369394
0.367348
0.365407
0.363564
0.361813
0.360149
0.358566
0.35706
0.355626
0.354261
0.352959
0.351719
0.350536
0.349408
0.348331
0.347304
0.373825
0.37155
0.369391
0.367344
0.3654
0.363555
0.361801
0.360134
0.358548
0.357039
0.355603
0.354234
0.35293
0.351687
0.350501
0.34937
0.34829
0.34726
0.373825
0.371549
0.36939
0.367341
0.365396
0.363549
0.361793
0.360124
0.358537
0.357025
0.355586
0.354216
0.352909
0.351664
0.350475
0.349342
0.34826
0.347228
0.373825
0.371549
0.36939
0.36734
0.365395
0.363547
0.36179
0.36012
0.358531
0.357019
0.355578
0.354206
0.352898
0.351652
0.350462
0.349328
0.348245
0.347211
0.373825
0.37155
0.369391
0.367342
0.365397
0.36355
0.361794
0.360124
0.358535
0.357023
0.355582
0.35421
0.352902
0.351655
0.350466
0.349331
0.348249
0.347215
0.373826
0.371551
0.369394
0.367346
0.365403
0.363556
0.361802
0.360133
0.358545
0.357034
0.355595
0.354223
0.352916
0.35167
0.350481
0.349347
0.348265
0.347232
0.373826
0.371554
0.369398
0.367353
0.365412
0.363568
0.361815
0.360148
0.358562
0.357053
0.355615
0.354244
0.352938
0.351692
0.350503
0.349369
0.348285
0.34725
0.373827
0.371558
0.369405
0.367364
0.365425
0.363585
0.361834
0.360169
0.358583
0.357073
0.355632
0.354258
0.352945
0.351692
0.350492
0.349346
0.348247
0.347198
0.37383
0.371567
0.369413
0.367379
0.365441
0.363602
0.361845
0.360172
0.358569
0.357039
0.355569
0.354164
0.35281
0.351513
0.35026
0.349061
0.3479
0.346792
0.373843
0.371579
0.369402
0.367376
0.365425
0.36357
0.361767
0.36004
0.358354
0.356735
0.355155
0.353634
0.352144
0.350712
0.349306
0.347959
0.346634
0.345373
0.373879
0.37153
0.369274
0.367264
0.365261
0.363343
0.361379
0.359478
0.357554
0.355694
0.353825
0.35202
0.350213
0.348473
0.346738
0.345081
0.343428
0.341869
0.373915
0.371251
0.368917
0.367052
0.364898
0.362814
0.360435
0.358128
0.355633
0.353238
0.350741
0.34835
0.345919
0.343601
0.341291
0.339103
0.336948
0.334921
0.373587
0.370693
0.368996
0.367718
0.365308
0.362976
0.359789
0.35684
0.353378
0.350288
0.347016
0.344141
0.341346
0.338869
0.336703
0.334666
0.333071
0.331439
0.372982
0.374945
0.379234
0.385265
0.390288
0.396486
0.401565
0.407954
0.413625
0.420748
0.427734
0.436119
0.444575
0.4541
0.463793
0.472498
0.481719
0.489707
0.462288
0.611415
0.727665
0.81358
0.871381
0.909556
0.930161
0.942115
0.942885
0.940917
0.936029
0.928034
0.918976
0.909293
0.899606
0.890103
0.880842
0.871956
3.70903e-06
2.8951e-05
7.47386e-05
0.000145715
0.000233447
0.000343589
0.000542918
0.000875465
0.00137517
0.00201387
0.0026974
0.00336457
0.00398425
0.00451965
0.00497782
0.00533818
0.00560792
0.00579311
0.00589056
0.00588533
0.0058153
0.00572032
0.00550639
0.00516923
0.00469801
0.00408014
0.0033243
0.00247006
0.00159944
0.000844733
0.000336245
9.61745e-05
3.42482e-05
3.17996e-05
3.57953e-05
3.92516e-05
4.12246e-05
4.21004e-05
4.57838e-05
5.92216e-05
0.000152659
0.000334286
0.000717342
0.00116467
0.00151526
0.00167575
0.00164695
0.0015496
0.00144842
0.00140239
0.00152196
0.00203674
0.00222018
0.00263769
0.00338946
0.00544128
0.0158941
0.0347738
0.0546436
0.0737725
0.0917497
0.108665
0.124625
0.139853
0.154526
0.168532
0.181597
0.194037
0.205803
0.217065
0.227842
0.238234
0.248279
0.258036
0.267537
0.276818
0.285894
0.294807
0.303554
0.312156
0.32062
0.328947
0.337145
0.34521
0.353143
0.36094
0.368595
0.376104
0.383458
0.390651
0.397672
0.404512
0.41116
0.417609
0.423849
0.429875
0.43569
0.441304
0.446744
0.45206
0.45723
0.462193
0.466969
0.471549
0.475927
0.480097
0.484052
0.487788
0.491298
0.494578
0.497622
0.500427
0.50299
0.505308
0.507382
0.509213
0.510807
0.51217
0.513323
0.514299
0.515183
0.515769
0.515729
0.515503
0.514763
0.512813
0.512005
0.510318
0.5085
0.506455
0.504065
0.50144
0.49874
0.495658
0.492411
0.488899
0.485198
0.481271
0.477145
0.4728
0.468242
0.463576
0.458613
0.453604
0.448363
0.443025
0.437526
0.431934
0.426208
0.420399
0.414506
0.408518
0.402499
0.396349
0.390205
0.384009
0.377874
0.37174
0.365668
0.359645
0.353707
0.347854
0.342102
0.336463
0.330948
0.325571
0.320333
0.315247
0.310326
0.305575
0.300981
0.296547
0.292268
0.288121
0.284027
0.279957
0.275907
0.272453
0.27027
0.257247
1.86969e-05
1.24301e-05
4.39823e-05
0.000119647
0.000326822
0.000914705
0.00217707
0.00406027
0.00628838
0.00860307
0.0107555
0.0125642
0.013956
0.014889
0.0154708
0.0156241
0.015556
0.0153349
0.0149208
0.0143742
0.0136519
0.0127402
0.0116691
0.0104213
0.00908931
0.00761201
0.00619933
0.00486146
0.00362805
0.00252535
0.00163072
0.000984328
0.000571896
0.000336292
0.00021029
0.000148948
0.000126777
0.000135689
0.00024668
0.00032881
0.00119588
0.00226846
0.00458812
0.00695348
0.00856991
0.00919196
0.00900792
0.0084207
0.00836908
0.00903205
0.01142
0.0158268
0.0209722
0.0296264
0.0420937
0.0595542
0.0844282
0.111754
0.138867
0.167266
0.195278
0.22391
0.252219
0.280492
0.308176
0.335246
0.361462
0.386835
0.411304
0.434926
0.457746
0.479851
0.501324
0.52226
0.542712
0.562756
0.58244
0.601846
0.620988
0.639905
0.658624
0.677156
0.695519
0.713715
0.73175
0.749624
0.767332
0.784868
0.802224
0.819388
0.836345
0.853079
0.86957
0.885795
0.90173
0.917347
0.932613
0.947494
0.961952
0.975972
0.989664
1.00308
1.01621
1.02903
1.04153
1.05371
1.06553
1.077
1.08808
1.09878
1.10906
1.11892
1.12835
1.13733
1.14584
1.15388
1.16144
1.1685
1.17507
1.18113
1.18668
1.19171
1.1962
1.20021
1.20372
1.20681
1.20971
1.21171
1.21289
1.21377
1.21338
1.21291
1.21209
1.21055
1.20849
1.20586
1.20271
1.19903
1.1948
1.19
1.18482
1.179
1.17285
1.16612
1.15911
1.15154
1.1437
1.13539
1.12682
1.11787
1.10861
1.09914
1.08937
1.07943
1.06921
1.05889
1.04844
1.03798
1.02747
1.01701
1.00661
0.996305
0.986139
0.976141
0.966347
0.956784
0.947486
0.938481
0.929798
0.921458
0.913474
0.90585
0.898586
0.891644
0.884956
0.878409
0.871869
0.865004
0.856447
0.83468
2.29806e-05
1.13543e-05
5.33532e-05
0.000232329
0.000859113
0.00226282
0.00487865
0.0079288
0.011015
0.0138567
0.0163013
0.018267
0.0197291
0.0207289
0.0213277
0.021573
0.0215424
0.0213685
0.0210413
0.0205392
0.0199157
0.0191648
0.0182861
0.0172577
0.0160549
0.0147027
0.0130979
0.0113027
0.00941593
0.00754599
0.00576635
0.00421263
0.00286168
0.00194213
0.00133985
0.000992507
0.000778678
0.000765022
0.000933742
0.00140172
0.00408222
0.00842824
0.0144494
0.0193622
0.0223157
0.0240488
0.0255352
0.0274189
0.0316747
0.040674
0.05547
0.0744589
0.0935953
0.118703
0.145923
0.177496
0.210712
0.246376
0.284232
0.323489
0.363352
0.40342
0.442904
0.481475
0.518709
0.554478
0.588715
0.621484
0.652892
0.683094
0.712244
0.7405
0.767977
0.794811
0.821079
0.846882
0.872289
0.89735
0.922105
0.946587
0.970816
0.99481
1.01858
1.04213
1.06546
1.08858
1.11148
1.13415
1.15658
1.17877
1.20071
1.22238
1.24378
1.26489
1.2857
1.30621
1.3264
1.34627
1.36583
1.38506
1.40395
1.42247
1.44061
1.45834
1.47564
1.4925
1.50889
1.5248
1.5402
1.55509
1.56942
1.5832
1.5964
1.609
1.62098
1.63234
1.64305
1.65309
1.66247
1.67115
1.67913
1.68639
1.69292
1.69874
1.70381
1.70815
1.71175
1.71449
1.7164
1.7173
1.71774
1.71768
1.71656
1.71458
1.71181
1.70828
1.704
1.69898
1.69322
1.68673
1.67961
1.67174
1.66332
1.6542
1.64457
1.63432
1.62358
1.61229
1.60057
1.58839
1.5758
1.56288
1.5496
1.53607
1.52226
1.50829
1.49416
1.47996
1.46571
1.45148
1.43731
1.42325
1.40936
1.39567
1.38223
1.36909
1.35628
1.34384
1.33181
1.32023
1.30912
1.29851
1.28841
1.27881
1.26967
1.2609
1.25232
1.24364
1.23313
1.21359
2.3156e-05
2.7794e-05
0.00018916
0.000826155
0.00249165
0.00606349
0.0104708
0.0148195
0.0186951
0.0218936
0.0243481
0.0260747
0.0271485
0.0277063
0.0278208
0.027703
0.0273745
0.0268438
0.0262046
0.0254838
0.0247013
0.0238558
0.0229444
0.0219529
0.0208619
0.0196508
0.0182859
0.016746
0.0150281
0.0131668
0.0112406
0.00933727
0.0075737
0.00595269
0.00454075
0.00364334
0.00285151
0.00290121
0.0034402
0.00819076
0.0164495
0.0281688
0.0377877
0.0443385
0.0481553
0.0533448
0.0645071
0.0798279
0.0966658
0.115066
0.135082
0.156278
0.182423
0.214196
0.249046
0.288877
0.330531
0.374532
0.419328
0.464485
0.509341
0.553556
0.596769
0.638798
0.679501
0.718841
0.756839
0.793574
0.829145
0.86368
0.897306
0.930137
0.962259
0.993779
1.02478
1.05532
1.08547
1.11526
1.14474
1.17392
1.20282
1.23146
1.25984
1.28797
1.31585
1.34348
1.37086
1.39797
1.42481
1.45138
1.47766
1.50364
1.52932
1.55469
1.57973
1.60443
1.62879
1.65279
1.67641
1.69964
1.72245
1.7448
1.76669
1.78808
1.80895
1.82929
1.84906
1.86824
1.88681
1.90475
1.92204
1.93865
1.95456
1.96976
1.98422
1.99792
2.01084
2.02296
2.03427
2.04475
2.05438
2.06315
2.07104
2.07804
2.08413
2.0893
2.09354
2.09682
2.09914
2.10034
2.10088
2.10079
2.09948
2.09718
2.09394
2.08978
2.08472
2.07877
2.07195
2.06428
2.0558
2.04649
2.03646
2.02566
2.01418
2.00201
1.98921
1.97578
1.9618
1.94729
1.93228
1.91684
1.90099
1.88481
1.86831
1.85159
1.83467
1.81763
1.80051
1.78339
1.76631
1.74934
1.73253
1.71593
1.6996
1.68358
1.66793
1.6527
1.63792
1.62365
1.60993
1.59678
1.58424
1.5723
1.56096
1.55015
1.53972
1.52943
1.51775
1.50004
2.9091e-05
9.06589e-05
0.000625266
0.00241818
0.00681902
0.0131938
0.0192673
0.0243679
0.0282439
0.0309206
0.0325744
0.0334198
0.0336526
0.0335135
0.0330973
0.0324303
0.031644
0.0307866
0.0298934
0.0289856
0.0280725
0.0271517
0.0262123
0.025239
0.0242133
0.0231107
0.0219051
0.0205724
0.0190968
0.0174677
0.0157079
0.0138812
0.0120969
0.0104441
0.00905967
0.00766389
0.00751708
0.00932589
0.0163539
0.0321422
0.0508882
0.0668562
0.0791411
0.0892978
0.0999372
0.111889
0.12526
0.139943
0.156586
0.176214
0.201717
0.231955
0.267719
0.307794
0.350544
0.395556
0.441287
0.487714
0.534126
0.58039
0.626282
0.671666
0.716354
0.760233
0.803215
0.845249
0.88632
0.926458
0.965706
1.00413
1.04179
1.07878
1.11517
1.15101
1.18639
1.22133
1.2559
1.29011
1.324
1.35758
1.39087
1.42388
1.4566
1.48905
1.52122
1.55311
1.58471
1.61601
1.64701
1.6777
1.70807
1.7381
1.76778
1.7971
1.82605
1.8546
1.88275
1.91047
1.93774
1.96454
1.99083
2.0166
2.04182
2.06646
2.0905
2.1139
2.13666
2.15873
2.1801
2.20074
2.22063
2.23973
2.25804
2.27552
2.29215
2.30791
2.32278
2.33674
2.34976
2.36183
2.37293
2.38304
2.39216
2.40025
2.4073
2.4133
2.41824
2.42212
2.42492
2.42653
2.42722
2.42715
2.42581
2.42336
2.41983
2.41526
2.40966
2.40304
2.39544
2.38687
2.37736
2.36694
2.35565
2.34351
2.33056
2.31683
2.30236
2.28718
2.27134
2.25488
2.23785
2.22031
2.20228
2.18385
2.16505
2.14595
2.1266
2.10709
2.08745
2.06777
2.04811
2.02852
2.00908
1.98984
1.97086
1.95219
1.9339
1.91604
1.89865
1.8818
1.86554
1.84989
1.8349
1.82059
1.80698
1.79403
1.78163
1.76957
1.75658
1.73931
2.35835e-05
0.000272094
0.00182773
0.00645801
0.0154348
0.023711
0.0300518
0.0343643
0.0369626
0.0383162
0.0388083
0.0387183
0.0382876
0.037499
0.0365423
0.0354904
0.0344007
0.0333138
0.0322553
0.031238
0.0302632
0.0293224
0.0284001
0.0274771
0.0265302
0.0255325
0.0244537
0.0232739
0.0219837
0.0205662
0.0190279
0.0173906
0.0156796
0.0138486
0.0128344
0.0137322
0.0186783
0.0318414
0.0543158
0.0786513
0.0997396
0.115619
0.126879
0.135786
0.144819
0.155449
0.168581
0.186124
0.209389
0.237953
0.27231
0.311053
0.35323
0.397374
0.44256
0.488399
0.534469
0.580731
0.627008
0.673282
0.719484
0.765534
0.811324
0.856749
0.901717
0.946147
0.989979
1.0332
1.0758
1.1178
1.15923
1.20014
1.24056
1.28054
1.32011
1.35931
1.39816
1.43668
1.47488
1.51279
1.55039
1.5877
1.62471
1.66142
1.69783
1.73393
1.76971
1.80516
1.84028
1.87504
1.90943
1.94345
1.97706
2.01026
2.04303
2.07534
2.10718
2.13852
2.16933
2.19959
2.22927
2.25836
2.28681
2.3146
2.3417
2.36809
2.39374
2.41862
2.44269
2.46594
2.48834
2.50986
2.53048
2.55017
2.56891
2.58667
2.60343
2.61917
2.63386
2.64749
2.66003
2.67147
2.68179
2.69098
2.69902
2.70589
2.7116
2.71612
2.71948
2.72157
2.72249
2.72254
2.72128
2.71879
2.71511
2.71026
2.70426
2.69714
2.68892
2.67962
2.66926
2.65789
2.64554
2.63223
2.61802
2.60291
2.58697
2.57023
2.55273
2.53452
2.51566
2.49619
2.47617
2.45565
2.43471
2.4134
2.39178
2.36992
2.3479
2.32578
2.30363
2.28152
2.25952
2.23769
2.2161
2.1948
2.17387
2.15335
2.13332
2.11382
2.09491
2.07665
2.05908
2.04224
2.02617
2.01086
1.99622
1.98212
1.96743
1.94951
6.69645e-05
0.000848564
0.00495383
0.0155552
0.02682
0.0347137
0.0395175
0.0421553
0.0433875
0.0436789
0.0433957
0.0426438
0.0415546
0.0402886
0.0389371
0.0375705
0.0362395
0.0349773
0.0338014
0.0327156
0.0317128
0.0307771
0.0298876
0.0290189
0.0281396
0.0272177
0.0262055
0.0250788
0.0238252
0.0224383
0.0209589
0.0196625
0.0189441
0.0195371
0.0233049
0.033848
0.053808
0.0802733
0.10657
0.128715
0.144291
0.153723
0.160119
0.166863
0.176085
0.190564
0.210613
0.236493
0.268032
0.304326
0.344444
0.386863
0.430612
0.475017
0.519811
0.564887
0.610206
0.655803
0.701692
0.747886
0.794364
0.841066
0.887904
0.934771
0.981557
1.02817
1.07454
1.1206
1.16632
1.21168
1.25669
1.30135
1.34566
1.38966
1.43334
1.47673
1.51983
1.56265
1.60518
1.64742
1.68937
1.73102
1.77237
1.81339
1.8541
1.89446
1.93448
1.97414
2.01342
2.0523
2.09078
2.12882
2.16641
2.20353
2.24015
2.27625
2.31181
2.34679
2.38118
2.41494
2.44804
2.48047
2.51218
2.54315
2.57334
2.60273
2.63129
2.65898
2.68577
2.71164
2.73656
2.7605
2.78344
2.80534
2.82618
2.84594
2.86459
2.88211
2.89847
2.91365
2.92764
2.94041
2.95196
2.96227
2.97132
2.97909
2.98558
2.9908
2.99474
2.99735
2.99859
2.99881
2.9977
2.99524
2.99148
2.98643
2.98013
2.9726
2.96385
2.95391
2.94282
2.9306
2.91729
2.90292
2.88754
2.87117
2.85386
2.83565
2.81659
2.79673
2.77611
2.75481
2.73286
2.71035
2.68732
2.66385
2.64001
2.61586
2.59148
2.56693
2.54231
2.51767
2.49309
2.46863
2.44437
2.42038
2.39671
2.37344
2.35062
2.32833
2.30663
2.28558
2.26523
2.24565
2.22688
2.20893
2.19177
2.17527
2.15845
2.1391
0.000539004
0.00249226
0.0117086
0.0272665
0.0377182
0.0436703
0.0468191
0.0482449
0.0485335
0.0481192
0.0471214
0.045742
0.0441517
0.0424647
0.0407711
0.0391381
0.037611
0.0362147
0.0349569
0.0338312
0.0328209
0.0319022
0.0310474
0.0302229
0.0293875
0.0284894
0.0275218
0.0265351
0.0255917
0.0248349
0.0246072
0.0255216
0.0291924
0.037678
0.0542447
0.0782365
0.104501
0.129257
0.149441
0.163005
0.170707
0.175681
0.181688
0.192424
0.208662
0.230964
0.258899
0.29183
0.328809
0.368663
0.410303
0.452813
0.49579
0.53909
0.582721
0.626737
0.67121
0.716216
0.761808
0.808016
0.854829
0.902193
0.950022
0.998223
1.04669
1.09533
1.14405
1.19277
1.24144
1.29
1.33844
1.38674
1.43487
1.48282
1.5306
1.57818
1.62556
1.67271
1.71963
1.76629
1.81267
1.85875
1.90453
1.94997
1.99507
2.03981
2.08417
2.12814
2.17169
2.2148
2.25745
2.29962
2.34128
2.3824
2.42296
2.46293
2.50229
2.541
2.57905
2.61638
2.65298
2.68882
2.72385
2.75805
2.79139
2.82382
2.85533
2.88587
2.91542
2.94393
2.97139
2.99777
3.02302
3.04714
3.07009
3.09184
3.11237
3.13165
3.14967
3.16639
3.18181
3.19591
3.20867
3.22007
3.23011
3.23878
3.24606
3.25197
3.25649
3.25961
3.26124
3.26165
3.26069
3.25828
3.25447
3.24927
3.24271
3.2348
3.22558
3.21506
3.20328
3.19027
3.17607
3.1607
3.14422
3.12665
3.10803
3.08841
3.06784
3.04637
3.02405
3.00096
2.97713
2.95265
2.92757
2.90196
2.8759
2.84946
2.82271
2.79573
2.76859
2.74137
2.71415
2.68699
2.65997
2.63317
2.60665
2.58048
2.55474
2.5295
2.50483
2.4808
2.45747
2.43491
2.41319
2.39233
2.37233
2.35309
2.33374
2.31235
0.00194908
0.00596766
0.022396
0.0380409
0.0466731
0.0511267
0.0531807
0.0537145
0.0532806
0.0521279
0.050482
0.0485577
0.0465014
0.0444312
0.0424368
0.0405813
0.0389024
0.037416
0.0361192
0.0349953
0.0340191
0.0331609
0.0323928
0.0316957
0.0310242
0.0303986
0.0299083
0.02972
0.0300788
0.0316381
0.0353278
0.0427433
0.0567351
0.0764623
0.0992915
0.122741
0.144123
0.16114
0.172574
0.179519
0.185056
0.192918
0.205415
0.223687
0.247605
0.276637
0.30988
0.346385
0.385177
0.425338
0.466206
0.507445
0.549008
0.590957
0.633396
0.676435
0.720177
0.764713
0.810111
0.856398
0.903559
0.95156
1.00033
1.04979
1.09984
1.15039
1.20133
1.25258
1.30408
1.35574
1.40753
1.4594
1.51131
1.56322
1.6151
1.66692
1.71863
1.7702
1.82159
1.87277
1.92369
1.97432
2.02464
2.07463
2.12425
2.17348
2.22231
2.27069
2.31863
2.36607
2.41301
2.45941
2.50523
2.55046
2.59506
2.63899
2.68224
2.72477
2.76654
2.80753
2.84769
2.88699
2.9254
2.96288
2.99939
3.0349
3.06937
3.10277
3.13507
3.16623
3.19621
3.225
3.25255
3.27885
3.30386
3.32757
3.34993
3.37093
3.39055
3.40876
3.42555
3.44091
3.45482
3.46726
3.47824
3.48774
3.49575
3.50229
3.50734
3.51091
3.51291
3.51352
3.51267
3.5103
3.50643
3.50107
3.49425
3.48598
3.4763
3.46523
3.4528
3.43903
3.42397
3.40764
3.39009
3.37135
3.35146
3.33047
3.30843
3.28539
3.26142
3.23656
3.21088
3.18445
3.15734
3.12961
3.10133
3.07259
3.04345
3.014
2.98431
2.95446
2.92452
2.89458
2.86472
2.835
2.8055
2.77632
2.74751
2.71917
2.69136
2.66417
2.63766
2.61191
2.587
2.56298
2.53986
2.51759
2.49535
2.47144
0.00418391
0.0116262
0.0335254
0.0476955
0.0547088
0.0580393
0.0592291
0.0590305
0.0579033
0.0560934
0.0538765
0.0514468
0.0489654
0.046559
0.0443199
0.0423066
0.0405486
0.0390532
0.0378103
0.0367982
0.0359861
0.0353408
0.0348622
0.0346077
0.034564
0.034897
0.0359031
0.0379998
0.042031
0.0494568
0.0610961
0.0767872
0.0950554
0.114867
0.134388
0.151799
0.165729
0.175951
0.18363
0.191197
0.201348
0.216026
0.23594
0.260888
0.290146
0.322884
0.358245
0.395439
0.43378
0.472756
0.512108
0.551794
0.591908
0.632579
0.673943
0.716132
0.759262
0.80343
0.848693
0.895086
0.942612
0.991249
1.04094
1.09162
1.14321
1.19559
1.2487
1.30242
1.35669
1.41142
1.46654
1.52198
1.57768
1.63358
1.68961
1.74572
1.80185
1.85793
1.9139
1.96969
2.02526
2.08055
2.13554
2.19018
2.24443
2.29827
2.35166
2.40458
2.45699
2.50887
2.56018
2.61089
2.66096
2.71037
2.75907
2.80703
2.85423
2.90062
2.94617
2.99084
3.03459
3.07738
3.11917
3.15992
3.1996
3.23816
3.27558
3.31181
3.34681
3.38055
3.413
3.44413
3.4739
3.5023
3.52929
3.55484
3.57894
3.60155
3.62266
3.64224
3.66029
3.67679
3.69173
3.7051
3.71689
3.72711
3.73575
3.7428
3.74829
3.7522
3.75448
3.75524
3.75445
3.75205
3.74806
3.74249
3.73538
3.72674
3.71659
3.70496
3.69187
3.67736
3.66145
3.64418
3.62559
3.6057
3.58457
3.56224
3.53875
3.51418
3.48857
3.46198
3.43448
3.40613
3.37699
3.34714
3.31666
3.28561
3.25407
3.22212
3.18985
3.15732
3.12462
3.09182
3.05902
3.0263
2.99374
2.96142
2.92942
2.89784
2.86675
2.83624
2.80638
2.77726
2.74896
2.72156
2.69509
2.66952
2.6441
2.61728
0.00653352
0.0192592
0.0437643
0.0562956
0.0622762
0.0648459
0.0653722
0.0645368
0.0627699
0.0603919
0.057664
0.0548033
0.0519865
0.0493487
0.0469832
0.0449452
0.0432579
0.0419278
0.0409422
0.0402609
0.0399115
0.0398332
0.0401169
0.0409303
0.042526
0.0453646
0.0500325
0.0570592
0.0668005
0.0790193
0.093388
0.109244
0.125546
0.14121
0.15521
0.167018
0.176865
0.185812
0.195676
0.208285
0.224958
0.246098
0.271424
0.300291
0.331957
0.365733
0.401016
0.437306
0.474228
0.511571
0.549291
0.58747
0.626247
0.665776
0.706208
0.747682
0.790313
0.834192
0.879393
0.925958
0.973906
1.02322
1.07388
1.12581
1.17895
1.23321
1.28849
1.34471
1.40178
1.4596
1.51809
1.57716
1.63672
1.69667
1.75694
1.81743
1.87805
1.93873
1.99936
2.05986
2.12016
2.1802
2.23994
2.29931
2.35828
2.4168
2.47483
2.53234
2.58929
2.64564
2.70137
2.75643
2.81078
2.86438
2.91719
2.96918
3.02032
3.07056
3.11986
3.16818
3.21547
3.2617
3.3068
3.35075
3.39351
3.43504
3.47529
3.51423
3.55181
3.58801
3.62278
3.6561
3.68794
3.71827
3.74706
3.77429
3.79994
3.82399
3.8464
3.86717
3.88628
3.90373
3.91951
3.93362
3.94605
3.95681
3.96589
3.97331
3.97906
3.98316
3.98559
3.98638
3.98554
3.98301
3.97881
3.97296
3.96549
3.95642
3.94576
3.93355
3.9198
3.90453
3.88779
3.86959
3.84997
3.82896
3.80661
3.78297
3.75809
3.73201
3.70481
3.67653
3.64724
3.617
3.58588
3.55394
3.52127
3.48793
3.454
3.41956
3.38468
3.34945
3.31395
3.27827
3.24249
3.2067
3.171
3.13547
3.1002
3.06528
3.0308
2.99684
2.96349
2.93085
2.89901
2.86806
2.83803
2.80897
2.78015
2.75014
0.00842139
0.0279118
0.0526576
0.0644871
0.0698898
0.0718905
0.0718961
0.0705205
0.06823
0.065382
0.0622688
0.0591303
0.0561571
0.0534919
0.0512299
0.0494311
0.0481123
0.047313
0.0470188
0.047088
0.0476988
0.0489688
0.0510803
0.0542982
0.05891
0.0651139
0.0730232
0.0826707
0.0938658
0.106236
0.119271
0.132359
0.144928
0.156593
0.167327
0.177507
0.188036
0.200115
0.214921
0.23316
0.255014
0.280196
0.308179
0.338383
0.370284
0.403446
0.43752
0.472247
0.50747
0.543144
0.579329
0.61615
0.653765
0.692336
0.732014
0.772933
0.815215
0.85896
0.904245
0.951125
0.999633
1.04977
1.10153
1.15485
1.20968
1.26593
1.32352
1.38236
1.44235
1.50338
1.56536
1.62817
1.69171
1.75584
1.82044
1.88539
1.9506
2.01594
2.08129
2.14656
2.21163
2.27646
2.34097
2.4051
2.46881
2.53203
2.5947
2.65678
2.71823
2.77902
2.83911
2.89845
2.957
3.01472
3.07156
3.12748
3.18244
3.2364
3.28932
3.34115
3.39184
3.44133
3.48957
3.53654
3.58217
3.62645
3.66932
3.71074
3.75067
3.78908
3.82592
3.86117
3.89481
3.9268
3.95713
3.98577
4.01269
4.03789
4.06133
4.08301
4.10291
4.12104
4.13739
4.15197
4.16478
4.17583
4.18512
4.19266
4.19847
4.20256
4.20493
4.20558
4.20456
4.20175
4.19719
4.19095
4.18303
4.17345
4.16224
4.1494
4.13497
4.11895
4.10138
4.08226
4.06164
4.03954
4.01602
3.99111
3.96488
3.93736
3.90863
3.87872
3.8477
3.81564
3.78259
3.74862
3.71381
3.67822
3.64194
3.60504
3.56759
3.52967
3.49138
3.4528
3.41403
3.37516
3.3363
3.29753
3.25895
3.22064
3.1827
3.14522
3.1083
3.07203
3.03653
3.0019
2.9682
2.93549
2.90311
2.86979
0.00960515
0.0359001
0.0613507
0.0728797
0.0778689
0.0794353
0.0790114
0.0771877
0.0744916
0.071336
0.0680503
0.0648932
0.0620576
0.0596869
0.0578802
0.0567326
0.0562689
0.0562773
0.0569727
0.0583749
0.0605742
0.0636812
0.0678117
0.0730678
0.0795056
0.0871096
0.0957965
0.105392
0.115635
0.126241
0.136938
0.14756
0.158078
0.168647
0.179678
0.191828
0.205833
0.222295
0.241551
0.263602
0.288197
0.314945
0.343431
0.373285
0.404209
0.435975
0.46842
0.501445
0.535023
0.569197
0.604073
0.639797
0.676521
0.714404
0.753598
0.794244
0.836462
0.880351
0.925999
0.973472
1.02281
1.07404
1.12716
1.18213
1.23891
1.29743
1.3576
1.41933
1.48251
1.54701
1.61272
1.6795
1.7472
1.81566
1.8847
1.9542
2.02402
2.09402
2.16406
2.23402
2.3038
2.37332
2.44252
2.51133
2.57968
2.64749
2.71468
2.7812
2.847
2.91204
2.97629
3.03971
3.10226
3.16387
3.2245
3.2841
3.34263
3.40004
3.4563
3.51133
3.56509
3.61753
3.66858
3.71821
3.76637
3.81302
3.85814
3.90166
3.94355
3.98378
4.0223
4.05909
4.09412
4.12738
4.15883
4.18847
4.21628
4.24223
4.26631
4.28851
4.30883
4.32727
4.34384
4.35854
4.37139
4.3824
4.39157
4.39895
4.40453
4.40835
4.41042
4.41073
4.40934
4.40603
4.40096
4.39418
4.38571
4.37554
4.3637
4.3502
4.33506
4.31829
4.2999
4.27989
4.2583
4.23516
4.21052
4.18443
4.15693
4.12806
4.09788
4.06644
4.0338
4
3.96511
3.9292
3.89235
3.85461
3.81606
3.77677
3.73681
3.69627
3.65523
3.61381
3.57209
3.53019
3.48819
3.4462
3.40432
3.36262
3.32121
3.28019
3.23965
3.19972
3.16051
3.12214
3.08468
3.04825
3.01222
2.97554
0.0104611
0.042718
0.0696494
0.0813316
0.0861553
0.0874568
0.0866887
0.0844986
0.0815228
0.0782557
0.0750683
0.0722216
0.0698838
0.0681526
0.0672082
0.0669279
0.0672975
0.0684344
0.070317
0.0729918
0.0764821
0.0808078
0.0859785
0.0919811
0.0987702
0.106267
0.11437
0.122964
0.131966
0.141346
0.151129
0.161429
0.172461
0.184558
0.198123
0.213528
0.231028
0.250715
0.272512
0.29621
0.32154
0.348226
0.376027
0.404756
0.434277
0.464502
0.49539
0.526945
0.559219
0.592302
0.626309
0.661374
0.697648
0.735289
0.774446
0.815258
0.85785
0.902337
0.948818
0.997377
1.04806
1.10088
1.15587
1.21301
1.27226
1.33355
1.3968
1.46189
1.5287
1.59709
1.66689
1.73791
1.80997
1.88286
1.95638
2.03035
2.10462
2.17907
2.25356
2.32796
2.40218
2.47612
2.54974
2.62294
2.69565
2.76777
2.83919
2.90983
2.9796
3.04852
3.11655
3.18365
3.24977
3.31485
3.37883
3.44165
3.50327
3.56365
3.62272
3.68044
3.73675
3.79159
3.84489
3.89663
3.94674
3.99521
4.04199
4.08703
4.13031
4.17177
4.21139
4.24914
4.28499
4.31894
4.35097
4.38106
4.4092
4.43537
4.45957
4.48179
4.50203
4.5203
4.53662
4.55101
4.56347
4.57403
4.58272
4.58956
4.59459
4.59784
4.59933
4.59905
4.597
4.59297
4.58721
4.57975
4.57059
4.55974
4.5472
4.53299
4.51713
4.49961
4.48044
4.45957
4.43707
4.41298
4.38733
4.36016
4.33151
4.30142
4.26993
4.23709
4.20295
4.16756
4.13098
4.09327
4.0545
4.01474
3.97406
3.93251
3.89016
3.8471
3.80343
3.75927
3.71472
3.66987
3.62483
3.5797
3.53458
3.48956
3.44473
3.40019
3.35607
3.31249
3.26958
3.22746
3.18625
3.14608
3.10636
3.06635
0.01086
0.0498157
0.078076
0.0899571
0.0946545
0.0957301
0.0946514
0.0921347
0.0889405
0.0857086
0.0828737
0.0806511
0.0791042
0.0783376
0.0781607
0.0786918
0.0800058
0.0820454
0.0847828
0.0882071
0.0923053
0.0970603
0.10245
0.108449
0.11503
0.122174
0.129883
0.138186
0.147152
0.156884
0.167534
0.179294
0.192373
0.206967
0.223224
0.241208
0.260892
0.282172
0.304893
0.328881
0.353976
0.380025
0.40692
0.434587
0.462986
0.492121
0.522021
0.552747
0.584385
0.61704
0.650838
0.685924
0.722453
0.760582
0.800464
0.842242
0.886046
0.932
0.980224
1.03077
1.08366
1.13895
1.19666
1.25678
1.31929
1.38411
1.45117
1.52031
1.59138
1.66414
1.73833
1.81372
1.8901
1.96726
2.04496
2.12302
2.20121
2.27946
2.35777
2.43603
2.51409
2.59189
2.66937
2.74642
2.82292
2.89874
2.97377
3.0479
3.12104
3.19324
3.26444
3.3346
3.40365
3.47152
3.53815
3.60348
3.66745
3.73003
3.79115
3.85077
3.90883
3.96525
4.02
4.07301
4.12426
4.17371
4.22132
4.26706
4.3109
4.35278
4.3927
4.43061
4.4665
4.50038
4.53222
4.56202
4.58978
4.61548
4.63912
4.6607
4.68024
4.69775
4.71324
4.72676
4.73831
4.74794
4.75567
4.76155
4.76562
4.76794
4.76851
4.76738
4.76428
4.7593
4.75265
4.74432
4.73432
4.72266
4.70933
4.69435
4.67771
4.65943
4.63949
4.61786
4.59458
4.56967
4.54316
4.51508
4.48545
4.45431
4.42169
4.38763
4.35218
4.31538
4.27729
4.23797
4.19748
4.15588
4.11326
4.06964
4.02507
3.97967
3.93356
3.88684
3.83962
3.79199
3.74406
3.69593
3.64771
3.59948
3.55133
3.50337
3.45575
3.40861
3.36208
3.31631
3.27139
3.22752
3.18415
3.14092
0.0109939
0.0567194
0.0863394
0.0985398
0.103155
0.104001
0.10243
0.0994872
0.0962407
0.0933619
0.0911663
0.0897911
0.089199
0.0891217
0.0896948
0.0909974
0.0929731
0.0955788
0.0987841
0.102573
0.106936
0.111873
0.117397
0.123534
0.130328
0.137841
0.146157
0.155364
0.165583
0.176941
0.189566
0.203561
0.218988
0.235866
0.254165
0.273812
0.294708
0.316741
0.339807
0.363828
0.388709
0.414377
0.440829
0.468076
0.496152
0.525113
0.555037
0.586018
0.618162
0.651585
0.686419
0.722809
0.760913
0.800896
0.842909
0.887086
0.933553
0.982428
1.03379
1.08768
1.14412
1.20314
1.26474
1.32892
1.39562
1.46478
1.53628
1.60998
1.68564
1.76296
1.8416
1.92112
2.00136
2.08224
2.16356
2.24507
2.3265
2.40794
2.48939
2.57065
2.65159
2.73227
2.81275
2.89274
2.97207
3.0506
3.12821
3.20484
3.28046
3.35501
3.42842
3.50063
3.57155
3.64113
3.70927
3.77594
3.84108
3.90465
3.96662
4.02692
4.08549
4.14228
4.19722
4.25027
4.30142
4.35063
4.39787
4.44312
4.48635
4.52752
4.56659
4.60356
4.63843
4.67118
4.70183
4.73037
4.7568
4.78113
4.80335
4.82347
4.84152
4.85751
4.87148
4.88347
4.8935
4.90162
4.90787
4.9123
4.91499
4.916
4.91538