/*--------------------------------*- C++ -*----------------------------------*\
| =========                 |                                                 |
| \\      /  F ield         | OpenFOAM: The Open Source CFD Toolbox           |
|  \\    /   O peration     | Version:  2112                                  |
|   \\  /    A nd           | Website:  www.openfoam.com                      |
|    \\/     M anipulation  |                                                 |
\*---------------------------------------------------------------------------*/
FoamFile
{
    version     2.0;
    format      ascii;
    arch        "LSB;label=32;scalar=64";
    class       volScalarField;
    location    "300";
    object      nut;
}
// * * * * * * * * * * * * * * * * * * * * * * * * * * * * * * * * * * * * * //

dimensions      [0 2 -1 0 0 0 0];

internalField   nonuniform List<scalar> 
12225
(
5.36706e-06
8.10836e-06
9.99694e-06
1.11247e-05
1.1698e-05
1.18751e-05
1.19485e-05
1.18525e-05
1.16999e-05
1.15333e-05
1.13698e-05
1.12096e-05
1.10741e-05
1.09325e-05
1.08401e-05
1.07079e-05
1.0671e-05
1.0546e-05
0.000262352
5.95637e-05
4.5332e-05
3.73046e-05
3.41217e-05
3.29723e-05
3.26159e-05
3.30282e-05
3.36972e-05
3.37088e-05
3.32974e-05
3.34542e-05
3.33257e-05
3.37098e-05
3.37377e-05
3.4291e-05
3.44588e-05
3.52571e-05
0.00060239
0.00031934
0.000222556
0.000163238
0.000132796
0.000112905
0.000101609
9.19282e-05
8.60318e-05
7.91094e-05
7.47388e-05
6.96611e-05
6.66691e-05
6.30046e-05
6.1063e-05
5.83842e-05
5.71965e-05
5.5301e-05
0.0007661
0.00062578
0.000519008
0.000425966
0.000364116
0.000313087
0.00028321
0.000253488
0.000235946
0.000215077
0.000202614
0.000187212
0.000178402
0.000166808
0.000160569
0.000151734
0.000147306
0.000139964
0.000856114
0.000764554
0.000710744
0.000654064
0.000606799
0.000551615
0.000514998
0.000473905
0.000447993
0.000417354
0.000398272
0.000374401
0.000360145
0.000341151
0.000330534
0.000315198
0.000307375
0.000293849
0.000859798
0.000828906
0.000806832
0.000779738
0.000756866
0.000721979
0.000695803
0.000662049
0.000638307
0.000609105
0.000589351
0.000564577
0.000548613
0.000527514
0.000514893
0.000496778
0.000487048
0.000470455
0.000854095
0.000847228
0.000838839
0.000829973
0.000820097
0.000805729
0.0007932
0.000774297
0.000759621
0.000740037
0.00072564
0.000706951
0.000693967
0.00067663
0.000665479
0.000649535
0.000640361
0.000625073
0.000852237
0.000850524
0.00084794
0.000845302
0.000841121
0.000836451
0.000830297
0.000823971
0.000817152
0.000807657
0.00079981
0.000789149
0.000781161
0.000770244
0.000762626
0.000751808
0.00074492
0.000733944
0.000851669
0.000850776
0.000849722
0.00084857
0.000847283
0.000845451
0.000843558
0.000840998
0.000838143
0.000834496
0.000830762
0.00082646
0.00082231
0.000817129
0.000812786
0.000807144
0.0008028
0.000796587
0.000851577
0.000850692
0.00084994
0.00084905
0.00084834
0.000847384
0.000846563
0.00084544
0.000844366
0.000842875
0.000841469
0.000839581
0.000837893
0.00083563
0.000833643
0.000831097
0.000828914
0.000825982
0.000851563
0.000850669
0.000849919
0.000849096
0.000848423
0.000847658
0.000847031
0.00084628
0.000845653
0.000844846
0.000844168
0.000843256
0.000842499
0.00084145
0.000840602
0.000839384
0.000838472
0.00083709
0.000851554
0.000850671
0.000849893
0.000849094
0.000848397
0.000847671
0.000847044
0.000846375
0.000845802
0.000845163
0.000844622
0.00084399
0.00084346
0.000842809
0.000842271
0.00084158
0.000841024
0.000840295
0.000851547
0.000850675
0.000849877
0.00084909
0.000848372
0.00084766
0.000847014
0.000846367
0.000845783
0.000845191
0.000844658
0.000844109
0.000843617
0.0008431
0.000842635
0.000842138
0.000841689
0.000841207
0.000851542
0.000850676
0.000849865
0.000849084
0.000848353
0.000847647
0.000846985
0.000846346
0.000845747
0.000845165
0.000844621
0.000844091
0.000843594
0.000843108
0.000842652
0.000842205
0.000841781
0.000841367
0.000851539
0.000850675
0.000849858
0.000849078
0.000848339
0.000847633
0.000846964
0.000846325
0.000845717
0.000845136
0.000844583
0.000844053
0.000843549
0.000843066
0.000842605
0.000842163
0.00084174
0.000841335
0.000851538
0.000850674
0.000849853
0.000849072
0.000848329
0.000847622
0.000846949
0.000846307
0.000845695
0.00084511
0.000844553
0.00084402
0.000843512
0.000843025
0.00084256
0.000842115
0.000841689
0.000841282
0.000851537
0.000850673
0.000849851
0.000849068
0.000848323
0.000847614
0.000846939
0.000846294
0.00084568
0.000845093
0.000844533
0.000843997
0.000843486
0.000842996
0.000842529
0.000842081
0.000841652
0.000841242
0.000851539
0.000850677
0.000849857
0.000849075
0.000848331
0.000847622
0.000846946
0.000846302
0.000845686
0.000845098
0.000844537
0.000844
0.000843487
0.000842996
0.000842526
0.000842077
0.000841646
0.000841235
0.000851537
0.000850673
0.00084985
0.000849067
0.000848321
0.000847609
0.000846931
0.000846284
0.000845667
0.000845077
0.000844514
0.000843975
0.00084346
0.000842967
0.000842496
0.000842045
0.000841613
0.0008412
0.000851537
0.000850673
0.00084985
0.000849066
0.00084832
0.000847609
0.00084693
0.000846283
0.000845665
0.000845075
0.000844511
0.000843972
0.000843457
0.000842964
0.000842492
0.00084204
0.000841608
0.000841194
0.000851537
0.000850675
0.000849852
0.000849071
0.000848324
0.000847615
0.000846937
0.000846292
0.000845673
0.000845085
0.000844519
0.000843981
0.000843463
0.00084297
0.000842494
0.000842041
0.000841604
0.000841187
0.000851537
0.000850679
0.000849853
0.000849079
0.00084833
0.000847627
0.000846943
0.0008463
0.000845669
0.000845076
0.000844488
0.000843936
0.000843384
0.000842865
0.000842339
0.00084185
0.000841346
0.000840881
0.000851547
0.000850691
0.000849844
0.000849083
0.000848311
0.000847603
0.000846853
0.000846141
0.000845367
0.000844625
0.000843818
0.000843043
0.000842186
0.000841371
0.000840453
0.000839611
0.000838627
0.000837776
0.0008517
0.000850769
0.000849623
0.000848805
0.000847766
0.00084668
0.000845271
0.000843769
0.000841794
0.00083981
0.000837495
0.000835178
0.000832601
0.000829991
0.000827239
0.000824393
0.000821459
0.000818835
0.000853379
0.000851375
0.000846412
0.000844633
0.000840324
0.000835917
0.000830981
0.000824918
0.000816961
0.000809537
0.000800985
0.000793312
0.000784614
0.000777016
0.000768409
0.000761189
0.000752847
0.000746227
0.000852839
0.000844578
0.000823335
0.000809565
0.000795359
0.000778132
0.000756072
0.000735646
0.000713257
0.000694132
0.000673942
0.000657226
0.000639496
0.000625184
0.0006097
0.000597606
0.000584048
0.000573918
0.000846714
0.000791892
0.000717835
0.00067796
0.000623225
0.000578158
0.00053528
0.000501618
0.00046971
0.000445324
0.000421571
0.000403721
0.000385595
0.00037225
0.00035801
0.0003478
0.000336185
0.000328
0.000683205
0.000530669
0.000419054
0.000343091
0.000284154
0.000248439
0.000221423
0.000202509
0.000186378
0.000174944
0.000164455
0.000157135
0.000149939
0.000145056
0.00013985
0.000136429
0.000132298
0.000129418
0.000246664
0.000142451
9.98028e-05
7.54541e-05
6.49498e-05
5.92916e-05
5.56801e-05
5.35456e-05
5.20683e-05
5.14171e-05
5.09929e-05
5.11227e-05
5.12877e-05
5.1699e-05
5.10508e-05
5.04771e-05
5.00946e-05
4.97081e-05
6.04337e-06
8.06098e-06
9.69057e-06
1.0954e-05
1.18607e-05
1.25107e-05
1.29237e-05
1.32173e-05
1.33512e-05
1.34412e-05
1.34833e-05
1.34738e-05
1.34419e-05
1.33938e-05
1.33393e-05
1.32815e-05
1.32221e-05
1.31627e-05
3.23558e-10
1.15132e-08
2.96895e-08
5.78138e-08
9.25012e-08
1.35949e-07
2.14417e-07
3.44877e-07
5.3992e-07
7.87538e-07
1.05043e-06
1.3049e-06
1.53932e-06
1.7402e-06
1.91075e-06
2.04375e-06
2.14233e-06
2.2091e-06
2.24311e-06
2.23913e-06
2.21069e-06
2.17373e-06
2.09226e-06
1.96522e-06
1.78811e-06
1.55576e-06
1.27066e-06
9.46907e-07
6.15009e-07
3.25631e-07
1.29795e-07
3.71281e-08
1.32111e-08
1.22531e-08
1.37769e-08
1.50898e-08
1.583e-08
1.61475e-08
1.75397e-08
2.26587e-08
5.83219e-08
1.27439e-07
2.7268e-07
4.4127e-07
5.7247e-07
6.31827e-07
6.20269e-07
5.8313e-07
5.44613e-07
5.26744e-07
5.7062e-07
7.60835e-07
8.27563e-07
9.80018e-07
1.25343e-06
1.99148e-06
5.55968e-06
1.13129e-05
1.66317e-05
2.12122e-05
2.5137e-05
2.71743e-05
2.85752e-05
2.98577e-05
3.10826e-05
3.22364e-05
3.32725e-05
3.42542e-05
3.51692e-05
3.60431e-05
3.68741e-05
3.76743e-05
3.84456e-05
3.9194e-05
3.9922e-05
4.06328e-05
4.13273e-05
4.20106e-05
4.26816e-05
4.3343e-05
4.39956e-05
4.46397e-05
4.52766e-05
4.59063e-05
4.65294e-05
4.71462e-05
4.77565e-05
4.83609e-05
4.8959e-05
4.95511e-05
5.0137e-05
5.07168e-05
5.12904e-05
5.18584e-05
5.24211e-05
5.29793e-05
5.35343e-05
5.40884e-05
5.46461e-05
5.52134e-05
5.57874e-05
5.6362e-05
5.69415e-05
5.75263e-05
5.8117e-05
5.87148e-05
5.932e-05
5.99335e-05
6.05561e-05
6.11887e-05
6.18322e-05
6.24875e-05
6.3156e-05
6.38387e-05
6.45375e-05
6.5254e-05
6.59907e-05
6.67499e-05
6.75363e-05
6.83561e-05
6.9223e-05
7.0111e-05
7.09778e-05
7.18858e-05
7.2788e-05
7.35818e-05
7.41223e-05
7.38639e-05
7.36043e-05
7.33211e-05
7.29984e-05
7.26641e-05
7.23196e-05
7.19394e-05
7.15445e-05
7.11245e-05
7.06867e-05
7.0227e-05
6.97479e-05
6.92467e-05
6.87231e-05
6.81929e-05
6.7625e-05
6.70581e-05
6.6462e-05
6.58568e-05
6.52317e-05
6.45966e-05
6.39436e-05
6.32804e-05
6.26053e-05
6.19156e-05
6.12216e-05
6.05062e-05
5.97906e-05
5.90619e-05
5.83379e-05
5.76067e-05
5.68784e-05
5.6149e-05
5.54242e-05
5.4703e-05
5.39872e-05
5.32784e-05
5.25782e-05
5.18882e-05
5.1208e-05
5.05402e-05
4.98866e-05
4.92478e-05
4.86226e-05
4.80119e-05
4.74159e-05
4.68315e-05
4.62498e-05
4.56694e-05
4.50928e-05
4.463e-05
4.43162e-05
4.27074e-05
1.631e-09
6.21814e-09
4.22909e-08
1.37671e-07
4.37745e-07
1.42458e-06
3.34953e-06
6.19752e-06
9.71787e-06
1.37187e-05
1.79148e-05
2.19008e-05
2.54309e-05
2.82035e-05
3.02375e-05
3.12192e-05
3.15657e-05
3.11566e-05
3.03073e-05
2.82273e-05
2.55545e-05
2.15102e-05
1.73896e-05
1.36267e-05
1.0483e-05
7.82763e-06
5.78092e-06
4.18241e-06
2.95264e-06
1.98341e-06
1.28626e-06
7.95588e-07
4.93632e-07
3.24803e-07
2.36091e-07
1.98423e-07
2.02412e-07
2.43285e-07
4.7638e-07
6.89243e-07
2.64808e-06
5.08933e-06
1.02003e-05
1.49557e-05
1.77452e-05
1.80353e-05
1.68923e-05
1.48835e-05
1.32982e-05
1.23676e-05
1.19655e-05
1.21412e-05
1.21182e-05
1.43039e-05
1.86238e-05
2.49903e-05
3.42957e-05
4.47537e-05
5.54944e-05
6.81718e-05
8.1849e-05
9.68303e-05
0.000112501
0.000128788
0.000145242
0.000161631
0.000177661
0.000193143
0.000207954
0.000222023
0.000235353
0.000247968
0.00025979
0.000271162
0.000281981
0.000292416
0.000302296
0.000311924
0.000321228
0.000330275
0.000339109
0.000347738
0.000356201
0.000364505
0.000372672
0.00038071
0.00038863
0.000396436
0.000404135
0.000411726
0.000419208
0.000426575
0.000433817
0.000440917
0.00044785
0.000454577
0.000461039
0.000467154
0.000472809
0.000477884
0.000482657
0.000487345
0.000491915
0.00049636
0.000500686
0.000504884
0.000508952
0.000512885
0.000516678
0.000520327
0.000523826
0.000527172
0.000530358
0.00053338
0.000536232
0.000538911
0.000541412
0.000543732
0.000545873
0.000547839
0.000549645
0.000551316
0.000552868
0.000554125
0.000555345
0.000556372
0.000557572
0.000558479
0.000559068
0.00055943
0.000559553
0.000559733
0.000559758
0.000559533
0.000559121
0.000558512
0.000557782
0.00055693
0.00055588
0.000554227
0.000553299
0.000551045
0.000549808
0.0005473
0.000545687
0.000543
0.000540891
0.000538049
0.000535504
0.000532643
0.000529496
0.000526594
0.000523216
0.000520107
0.000516564
0.000513227
0.000509608
0.00050611
0.000502446
0.000498851
0.000495186
0.000491537
0.000487898
0.000484289
0.000480718
0.00047719
0.000473726
0.000470341
0.000467034
0.000463818
0.000460707
0.000457692
0.000454773
0.000451889
0.000449016
0.000446067
0.000442953
0.000439395
0.000434436
0.000420033
2.00467e-09
5.57315e-09
6.47285e-08
3.67746e-07
1.29602e-06
3.19387e-06
7.06717e-06
1.24159e-05
1.91121e-05
2.68212e-05
3.52594e-05
4.3816e-05
5.18207e-05
5.8902e-05
6.47972e-05
6.92919e-05
7.23949e-05
7.43505e-05
7.50941e-05
7.44223e-05
7.21161e-05
6.78989e-05
6.26799e-05
5.53857e-05
4.7128e-05
3.86705e-05
3.05476e-05
2.32274e-05
1.72092e-05
1.24134e-05
8.78258e-06
6.08427e-06
4.06806e-06
2.80177e-06
2.0169e-06
1.62611e-06
1.43523e-06
1.59791e-06
2.27411e-06
3.81454e-06
1.14977e-05
2.3201e-05
3.77242e-05
4.74682e-05
5.07093e-05
4.68486e-05
3.79507e-05
2.85357e-05
2.58795e-05
2.8111e-05
3.23215e-05
3.9259e-05
4.91975e-05
6.49192e-05
8.07132e-05
0.000100067
0.000122588
0.000149522
0.000180699
0.000215652
0.000252729
0.000291361
0.000330127
0.000368327
0.00040515
0.000440197
0.000473246
0.000504251
0.000533312
0.000560596
0.000586084
0.00061045
0.0006334
0.000655599
0.000676724
0.000697068
0.000716729
0.000735849
0.000754464
0.000772642
0.000790438
0.000807881
0.00082501
0.000841843
0.000858404
0.000874701
0.000890747
0.000906543
0.000922091
0.000937386
0.000952421
0.00096718
0.000981644
0.000995786
0.00100957
0.00102297
0.00103594
0.00104844
0.00106047
0.00107209
0.00108347
0.00109462
0.00110553
0.00111618
0.00112658
0.0011367
0.00114653
0.00115608
0.00116533
0.00117427
0.0011829
0.00119119
0.00119914
0.00120674
0.00121398
0.00122085
0.00122736
0.00123348
0.00123923
0.00124461
0.00124962
0.00125426
0.0012585
0.00126228
0.00126571
0.0012687
0.00127126
0.0012736
0.00127585
0.00127695
0.00127825
0.00127918
0.00127939
0.00127912
0.0012784
0.00127725
0.00127574
0.00127382
0.00127141
0.00126841
0.00126551
0.00126147
0.00125786
0.00125313
0.00124875
0.00124338
0.00123819
0.00123223
0.00122632
0.00121992
0.00121316
0.00120641
0.00119913
0.00119193
0.00118426
0.00117666
0.00116872
0.00116081
0.00115269
0.00114458
0.00113639
0.00112821
0.00112004
0.00111193
0.00110389
0.00109594
0.00108813
0.00108048
0.00107299
0.0010657
0.00105863
0.00105175
0.00104505
0.00103846
0.00103192
0.00102523
0.00101815
0.00101015
0.000999041
0.000973476
2.01997e-09
1.37148e-08
1.96155e-07
8.59946e-07
2.64131e-06
7.36196e-06
1.48468e-05
2.49521e-05
3.70669e-05
5.01219e-05
6.32316e-05
7.57792e-05
8.70529e-05
9.66497e-05
0.00010421
0.000110119
0.00011426
0.000116526
0.000117266
0.000116571
0.000114627
0.00011077
0.000106049
9.94467e-05
9.1557e-05
8.17922e-05
7.08714e-05
5.93537e-05
4.80774e-05
3.79531e-05
2.9463e-05
2.25413e-05
1.72596e-05
1.30111e-05
9.94141e-06
8.14128e-06
6.67728e-06
7.41099e-06
9.35848e-06
2.12963e-05
3.63229e-05
5.22725e-05
6.213e-05
6.56949e-05
5.6235e-05
4.97466e-05
5.10528e-05
5.49134e-05
6.01973e-05
7.00511e-05
8.56065e-05
0.000104719
0.000124404
0.000154865
0.000185153
0.000226244
0.00027069
0.000321673
0.000375343
0.000431596
0.000488091
0.000544185
0.000598604
0.00065087
0.000700551
0.000747531
0.00079186
0.000833713
0.00087305
0.000910388
0.000946078
0.000980259
0.00101288
0.00104436
0.00107472
0.00110415
0.00113276
0.00116067
0.00118793
0.0012146
0.00124075
0.00126641
0.0012916
0.00131637
0.00134071
0.00136465
0.00138819
0.00141134
0.0014341
0.00145645
0.0014784
0.00149993
0.00152102
0.00154166
0.00156184
0.00158154
0.00160075
0.00161948
0.00163776
0.00165563
0.00167317
0.00169033
0.00170713
0.00172353
0.00173953
0.00175512
0.00177028
0.001785
0.00179927
0.00181308
0.0018264
0.00183924
0.00185157
0.00186338
0.00187467
0.00188542
0.00189563
0.00190529
0.0019144
0.00192295
0.00193094
0.00193835
0.00194516
0.00195136
0.00195694
0.00196187
0.00196623
0.0019701
0.00197341
0.00197568
0.00197772
0.00197933
0.00197999
0.00197996
0.00197927
0.00197794
0.001976
0.00197342
0.00197014
0.00196623
0.00196185
0.00195659
0.00195108
0.00194469
0.00193805
0.00193059
0.00192283
0.00191437
0.0019056
0.00189625
0.00188643
0.00187634
0.00186572
0.0018549
0.00184363
0.00183219
0.00182041
0.00180849
0.00179634
0.00178411
0.00177177
0.0017594
0.00174702
0.00173469
0.00172244
0.00171031
0.00169835
0.0016866
0.00167508
0.00166383
0.00165287
0.00164219
0.00163177
0.00162154
0.0016114
0.00160107
0.00159021
0.00157838
0.00156269
0.00153262
2.53769e-09
4.10341e-08
4.36994e-07
1.94736e-06
6.78753e-06
1.6762e-05
3.13303e-05
4.91747e-05
6.8501e-05
8.76669e-05
0.000105433
0.000120603
0.00013258
0.000141769
0.000148405
0.000152578
0.000154899
0.000155647
0.00015503
0.000153195
0.000150263
0.00014606
0.000140801
0.000134383
0.000126982
0.000117818
0.000107178
9.52262e-05
8.23815e-05
6.9285e-05
5.7066e-05
4.64362e-05
3.77927e-05
3.0873e-05
2.59399e-05
2.1861e-05
2.13226e-05
2.41711e-05
3.65285e-05
5.66196e-05
7.67627e-05
8.43749e-05
8.30445e-05
8.0829e-05
8.05694e-05
8.31104e-05
8.9861e-05
0.000102074
0.00012208
0.000137377
0.000163182
0.000197646
0.000237338
0.000286982
0.000339748
0.000401835
0.000465151
0.000532908
0.000600998
0.000669558
0.000736877
0.000802526
0.00086577
0.000926367
0.000984224
0.00103918
0.00109135
0.00114127
0.00118901
0.00123455
0.00127831
0.00132041
0.00136101
0.00140032
0.00143845
0.00147554
0.0015117
0.00154701
0.00158154
0.00161536
0.0016485
0.00168101
0.00171292
0.00174425
0.00177502
0.00180525
0.00183494
0.0018641
0.00189273
0.00192083
0.0019484
0.00197543
0.00200191
0.00202786
0.00205325
0.0020781
0.00210242
0.00212622
0.00214952
0.00217234
0.00219469
0.00221655
0.00223791
0.00225877
0.00227909
0.00229888
0.00231813
0.00233681
0.00235492
0.00237244
0.00238935
0.00240565
0.00242133
0.00243636
0.00245074
0.00246446
0.00247752
0.00248991
0.00250162
0.00251265
0.00252298
0.00253261
0.00254153
0.00254975
0.00255718
0.00256365
0.00256954
0.00257476
0.00257921
0.00258266
0.00258551
0.00258788
0.00258923
0.00258972
0.00258939
0.00258826
0.00258635
0.00258365
0.00258011
0.00257583
0.00257081
0.00256494
0.00255844
0.00255112
0.00254319
0.00253446
0.00252514
0.00251509
0.00250447
0.00249319
0.00248133
0.00246896
0.00245602
0.00244266
0.00242881
0.0024146
0.0024
0.00238511
0.00236994
0.00235457
0.00233904
0.0023234
0.00230771
0.00229203
0.0022764
0.00226087
0.00224551
0.00223035
0.00221543
0.0022008
0.00218648
0.0021725
0.00215882
0.00214541
0.00213217
0.00211881
0.002105
0.00208998
0.00207154
0.00204109
2.05727e-09
9.63375e-08
1.01863e-06
4.98194e-06
1.68743e-05
3.6276e-05
6.01126e-05
8.59985e-05
0.000110697
0.00013182
0.000148435
0.000161158
0.000170896
0.000177688
0.000182276
0.000184955
0.000186009
0.000185647
0.000184053
0.000181374
0.0001777
0.000172967
0.000167285
0.00016075
0.000153138
0.000144132
0.000133752
0.000122059
0.00010929
9.35127e-05
7.80105e-05
6.37487e-05
5.11376e-05
4.03435e-05
3.38274e-05
3.29287e-05
3.92692e-05
5.73818e-05
8.05975e-05
9.65533e-05
0.000104349
0.00010717
0.000108252
0.000110984
0.000118634
0.000133197
0.000148855
0.000165793
0.000195217
0.000230513
0.00027489
0.00032799
0.000387533
0.000454411
0.000523944
0.000598393
0.000673219
0.000749704
0.000825424
0.000900227
0.000973208
0.00104406
0.00111249
0.00117796
0.00124096
0.0013019
0.00136003
0.00141593
0.0014697
0.00152146
0.00157145
0.00161979
0.00166664
0.00171214
0.00175642
0.00179957
0.00184169
0.00188285
0.00192312
0.00196253
0.00200115
0.002039
0.00207611
0.00211251
0.00214822
0.00218326
0.00221763
0.00225135
0.00228442
0.00231685
0.00234864
0.00237979
0.00241031
0.00244019
0.00246945
0.00249809
0.00252613
0.00255358
0.00258045
0.00260673
0.00263243
0.00265753
0.00268203
0.00270592
0.00272918
0.00275181
0.00277379
0.00279511
0.00281577
0.00283575
0.00285504
0.00287364
0.00289153
0.0029087
0.00292515
0.00294086
0.00295584
0.00297008
0.00298357
0.00299632
0.0030083
0.00301952
0.00302998
0.00303968
0.00304851
0.00305631
0.00306342
0.00306979
0.00307534
0.00307991
0.00308366
0.00308687
0.00308908
0.00309034
0.00309071
0.00309019
0.00308879
0.0030865
0.00308331
0.00307926
0.00307435
0.00306856
0.00306195
0.00305447
0.00304621
0.0030371
0.00302722
0.00301654
0.00300512
0.00299296
0.00298009
0.00296656
0.00295238
0.00293761
0.00292227
0.00290642
0.00289009
0.00287334
0.00285622
0.00283879
0.00282111
0.00280323
0.00278523
0.00276715
0.00274906
0.00273101
0.00271307
0.00269531
0.00267776
0.00266047
0.0026435
0.00262685
0.00261052
0.00259452
0.00257877
0.00256304
0.00254696
0.0025298
0.00250953
0.00248045
5.84125e-09
2.44713e-07
2.62408e-06
1.34686e-05
3.62326e-05
6.66561e-05
9.93453e-05
0.000128583
0.000152207
0.000170378
0.000184118
0.000193952
0.000200537
0.000204616
0.000206868
0.000207705
0.000207393
0.000206067
0.000203794
0.00020062
0.000196502
0.000191387
0.000185433
0.000178601
0.000170491
0.000160158
0.000142412
0.000125889
0.000110436
9.51086e-05
7.99818e-05
6.66096e-05
5.62291e-05
5.07032e-05
5.37265e-05
6.88021e-05
8.94382e-05
0.000111078
0.000124266
0.000131818
0.000135435
0.000138987
0.00014706
0.000162674
0.000172886
0.000190968
0.000219256
0.000255062
0.000300424
0.000353154
0.000414876
0.000483402
0.000556605
0.000633714
0.000712474
0.000793139
0.000873658
0.000954074
0.00103326
0.00111094
0.00118664
0.00125984
0.00133107
0.00140021
0.00146682
0.00153122
0.00159331
0.00165332
0.00171134
0.00176752
0.00182199
0.00187487
0.00192628
0.00197634
0.00202513
0.00207275
0.00211925
0.00216471
0.00220917
0.00225267
0.00229526
0.00233697
0.00237783
0.00241786
0.00245708
0.00249551
0.00253318
0.00257008
0.00260623
0.00264165
0.00267634
0.00271031
0.00274356
0.0027761
0.00280794
0.00283908
0.00286952
0.00289927
0.00292834
0.00295672
0.00298443
0.00301146
0.00303781
0.00306346
0.00308842
0.00311267
0.00313621
0.00315904
0.00318115
0.00320253
0.00322318
0.00324309
0.00326226
0.00328069
0.00329838
0.00331534
0.00333154
0.00334698
0.00336165
0.00337555
0.00338867
0.00340103
0.0034126
0.00342342
0.00343339
0.00344232
0.0034504
0.00345781
0.0034644
0.00347007
0.00347479
0.00347892
0.00348213
0.00348436
0.00348566
0.00348604
0.00348552
0.00348412
0.00348179
0.00347854
0.00347438
0.00346929
0.0034633
0.0034564
0.0034486
0.0034399
0.00343032
0.00341986
0.00340857
0.00339643
0.00338348
0.00336976
0.00335528
0.0033401
0.00332423
0.00330774
0.00329065
0.00327303
0.00325492
0.00323638
0.00321749
0.00319829
0.00317885
0.00315923
0.00313951
0.00311974
0.00309999
0.00308034
0.00306083
0.00304153
0.00302249
0.00300374
0.00298527
0.00296716
0.00294938
0.00293176
0.00291402
0.00289545
0.00287443
0.0028469
4.69929e-08
6.72606e-07
6.76896e-06
2.93627e-05
6.46492e-05
0.000102829
0.000136115
0.000162623
0.000182614
0.000197619
0.000207868
0.000214552
0.00021861
0.000220694
0.000221356
0.000221017
0.000219842
0.00021789
0.000215101
0.000211339
0.00020657
0.00020074
0.000194029
0.000186101
0.000175167
0.000156087
0.000138569
0.000122946
0.000108555
9.50059e-05
8.33672e-05
7.65272e-05
7.83623e-05
8.54042e-05
9.96553e-05
0.000123282
0.000146957
0.000159554
0.000165625
0.000170802
0.000178992
0.000190029
0.000195868
0.00021291
0.000238671
0.000272993
0.000316365
0.000367674
0.000427471
0.000494301
0.00056781
0.000645459
0.000725726
0.000807784
0.000890565
0.000973682
0.00105622
0.00113786
0.00121813
0.00129623
0.00137272
0.00144758
0.00152018
0.0015907
0.00165908
0.00172541
0.00178973
0.00185214
0.00191275
0.00197165
0.00202894
0.00208473
0.0021391
0.00219214
0.00224393
0.00229451
0.00234393
0.00239225
0.0024395
0.00248572
0.00253093
0.00257517
0.00261846
0.00266084
0.00270231
0.00274291
0.00278266
0.00282156
0.00285962
0.00289688
0.00293334
0.00296901
0.0030039
0.00303802
0.00307138
0.00310397
0.00313579
0.00316684
0.00319715
0.00322673
0.0032556
0.00328373
0.00331114
0.00333783
0.00336378
0.00338899
0.00341348
0.00343722
0.00346022
0.00348248
0.00350399
0.00352475
0.00354477
0.00356403
0.00358254
0.0036003
0.00361731
0.00363356
0.00364906
0.00366381
0.0036778
0.00369104
0.00370353
0.0037153
0.00372627
0.00373617
0.00374531
0.00375378
0.00376147
0.00376832
0.00377422
0.00377947
0.00378388
0.00378734
0.00378988
0.00379151
0.00379224
0.00379202
0.00379086
0.00378876
0.00378572
0.00378172
0.00377678
0.00377087
0.00376402
0.0037562
0.00374743
0.00373772
0.00372709
0.00371553
0.00370308
0.00368975
0.00367557
0.00366058
0.00364481
0.00362829
0.00361107
0.00359319
0.00357471
0.00355569
0.00353618
0.00351624
0.00349595
0.00347536
0.00345454
0.00343356
0.0034125
0.00339142
0.0033704
0.00334949
0.00332876
0.00330824
0.00328791
0.00326806
0.00324859
0.00322937
0.00321021
0.00319058
0.00316914
0.00314338
1.69673e-07
1.63882e-06
1.5517e-05
5.09197e-05
9.53156e-05
0.000136206
0.000168808
0.0001925
0.000208831
0.000219385
0.000226168
0.000229962
0.000231498
0.000231418
0.000230204
0.000228182
0.000225541
0.000222301
0.00021834
0.000213692
0.000208256
0.00020188
0.000194357
0.000185376
0.000167056
0.000149393
0.000133728
0.000120304
0.000110068
0.000104978
0.000103614
0.000102567
0.000113473
0.000133208
0.000154906
0.000175344
0.000191924
0.000203291
0.00020871
0.000212393
0.000218005
0.000232299
0.000254989
0.000286317
0.000326457
0.000374714
0.000430833
0.000494052
0.000564118
0.00063958
0.000719079
0.00080077
0.000883714
0.000967339
0.001051
0.00113427
0.00121665
0.00129741
0.00137662
0.00145482
0.00153099
0.00160533
0.00167772
0.0017482
0.00181677
0.00188351
0.00194846
0.00201169
0.00207329
0.00213333
0.0021919
0.00224908
0.00230494
0.00235954
0.00241294
0.00246516
0.00251624
0.00256617
0.002615
0.00266275
0.00270945
0.00275511
0.00279976
0.00284343
0.00288613
0.0029279
0.00296876
0.00300876
0.00304789
0.00308614
0.00312353
0.00316006
0.00319575
0.0032306
0.00326464
0.00329787
0.0033303
0.00336195
0.00339284
0.00342296
0.00345232
0.00348093
0.00350879
0.00353589
0.00356224
0.00358784
0.00361269
0.0036368
0.00366016
0.00368278
0.00370466
0.0037258
0.00374621
0.00376589
0.00378484
0.00380306
0.00382057
0.00383735
0.00385341
0.00386876
0.00388341
0.00389734
0.00391058
0.00392316
0.00393495
0.00394576
0.00395597
0.00396551
0.00397432
0.00398238
0.00398958
0.00399609
0.00400183
0.0040067
0.00401068
0.0040138
0.00401603
0.00401735
0.00401777
0.00401726
0.0040158
0.0040134
0.00401002
0.00400567
0.00400033
0.00399399
0.00398665
0.00397832
0.00396899
0.00395867
0.00394738
0.00393513
0.00392193
0.00390783
0.00389283
0.00387698
0.00386031
0.00384287
0.00382469
0.00380584
0.00378637
0.00376634
0.00374581
0.00372485
0.00370352
0.0036819
0.00366006
0.00363808
0.00361602
0.00359397
0.00357199
0.00355012
0.00352832
0.0035069
0.00348582
0.00346503
0.00344441
0.00342358
0.0034015
0.00337672
3.63352e-07
3.58223e-06
2.87099e-05
7.62825e-05
0.000124851
0.000164816
0.000194529
0.000214922
0.000228368
0.000235892
0.000239001
0.000239175
0.000237483
0.000234652
0.000231128
0.000227124
0.0002227
0.000217764
0.00021217
0.000205977
0.000199118
0.000191608
0.000182715
0.000172566
0.000157887
0.000145356
0.000136739
0.000127456
0.000120883
0.000121661
0.000130915
0.000145978
0.000163507
0.000182032
0.000199009
0.000212918
0.00022224
0.000228994
0.000236727
0.000249533
0.000269283
0.000296958
0.000333228
0.000377473
0.000429198
0.000487713
0.000552633
0.000623317
0.000698974
0.000778147
0.000859548
0.000942044
0.001025
0.00110795
0.00119044
0.00127195
0.00135192
0.00143111
0.00150874
0.00158477
0.00165901
0.00173148
0.00180218
0.00187112
0.00193838
0.00200401
0.00206807
0.00213063
0.00219176
0.00225146
0.00230988
0.00236709
0.00242313
0.00247805
0.00253189
0.00258469
0.00263655
0.00268744
0.00273721
0.00278583
0.00283333
0.00287972
0.00292502
0.00296927
0.00301248
0.00305468
0.00309589
0.00313611
0.00317539
0.00321378
0.0032513
0.00328797
0.0033238
0.0033588
0.00339299
0.00342637
0.00345896
0.00349077
0.0035218
0.00355205
0.00358153
0.00361023
0.00363818
0.00366536
0.0036918
0.00371748
0.00374242
0.00376662
0.00379009
0.00381284
0.00383486
0.00385617
0.00387678
0.00389668
0.0039159
0.00393442
0.00395227
0.00396945
0.00398596
0.00400181
0.00401701
0.00403156
0.00404548
0.00405882
0.00407136
0.00408316
0.00409439
0.004105
0.00411498
0.00412429
0.00413286
0.00414077
0.00414797
0.00415437
0.00415997
0.00416475
0.0041687
0.00417181
0.00417405
0.00417539
0.00417583
0.00417532
0.00417386
0.00417141
0.00416796
0.00416348
0.00415798
0.00415143
0.00414383
0.00413519
0.00412551
0.00411479
0.00410304
0.00409029
0.00407655
0.00406185
0.00404621
0.00402968
0.00401228
0.00399408
0.00397511
0.00395544
0.00393512
0.00391422
0.0038928
0.00387094
0.00384871
0.00382619
0.00380346
0.00378058
0.00375765
0.00373472
0.00371185
0.00368918
0.00366676
0.00364462
0.00362272
0.00360076
0.00357796
0.00355392
5.65987e-07
6.97575e-06
4.50529e-05
0.000101058
0.000152335
0.000190999
0.000217608
0.000234498
0.000243222
0.00024623
0.000245441
0.000242241
0.000237589
0.000232098
0.000226125
0.000219692
0.00021271
0.000205372
0.00019728
0.000189092
0.000181222
0.000173195
0.000164664
0.000156189
0.000148181
0.000142258
0.000140105
0.000142649
0.000150041
0.000161188
0.00017513
0.000190452
0.000205709
0.000219745
0.000231049
0.000240195
0.000250775
0.000263641
0.000282264
0.00030667
0.000338904
0.000378715
0.000425719
0.000479145
0.000538455
0.000603165
0.000672871
0.000746893
0.00082428
0.000903815
0.000984473
0.00106549
0.00114638
0.00122679
0.00130588
0.00138405
0.00146114
0.00153673
0.00161074
0.00168313
0.00175387
0.00182297
0.0018904
0.00195623
0.00202062
0.00208364
0.00214536
0.00220588
0.00226536
0.00232409
0.00238183
0.00243852
0.00249419
0.00254884
0.00260251
0.0026552
0.00270685
0.0027574
0.00280687
0.00285522
0.00290249
0.0029487
0.00299385
0.00303795
0.00308103
0.00312312
0.00316425
0.00320447
0.00324378
0.0032822
0.00331976
0.00335646
0.00339233
0.00342736
0.00346157
0.00349498
0.00352759
0.0035594
0.00359043
0.00362068
0.00365016
0.00367886
0.00370681
0.003734
0.00376044
0.00378615
0.00381113
0.00383538
0.00385892
0.00388175
0.00390389
0.00392535
0.00394614
0.00396626
0.00398572
0.00400455
0.00402274
0.00404031
0.00405727
0.00407362
0.00408938
0.00410455
0.00411918
0.00413322
0.00414658
0.00415939
0.00417166
0.00418339
0.00419457
0.00420518
0.00421517
0.00422456
0.00423333
0.00424137
0.00424867
0.00425525
0.00426107
0.00426611
0.00427035
0.00427375
0.00427627
0.0042779
0.00427858
0.00427828
0.00427698
0.00427465
0.00427126
0.0042668
0.00426126
0.00425461
0.00424687
0.00423802
0.00422807
0.00421702
0.00420489
0.0041917
0.00417746
0.0041622
0.00414595
0.00412875
0.00411065
0.00409169
0.00407193
0.00405143
0.00403025
0.00400847
0.00398616
0.00396339
0.00394025
0.00391681
0.00389317
0.00386939
0.00384555
0.00382179
0.00379817
0.00377477
0.00375161
0.00372849
0.00370474
0.00368103
7.28071e-07
1.19945e-05
6.02419e-05
0.000121746
0.000174634
0.00021253
0.000236375
0.000248907
0.000253485
0.000252749
0.000248644
0.000242525
0.000235296
0.000227427
0.000219114
0.000210944
0.000202509
0.000194223
0.000186612