/*--------------------------------*- C++ -*----------------------------------*\
| =========                 |                                                 |
| \\      /  F ield         | OpenFOAM: The Open Source CFD Toolbox           |
|  \\    /   O peration     | Version:  2112                                  |
|   \\  /    A nd           | Website:  www.openfoam.com                      |
|    \\/     M anipulation  |                                                 |
\*---------------------------------------------------------------------------*/
FoamFile
{
    version     2.0;
    format      ascii;
    arch        "LSB;label=32;scalar=64";
    class       volScalarField;
    location    "300";
    object      omega;
}
// * * * * * * * * * * * * * * * * * * * * * * * * * * * * * * * * * * * * * //

dimensions      [0 0 -1 0 0 0 0];

internalField   nonuniform List<scalar> 
12225
(
37447
40167.5
41810.6
42638.8
42945.9
42917.8
42787.2
42557.3
42283.7
42016
41765.4
41530.8
41327.6
41130.9
40983.4
40815.4
40732.7
40580.9
590.585
6465.15
8806.45
11106.7
12556.1
13480.3
14090
14501.7
14758
14981.1
15172.5
15407.1
15596.3
15823
15973.6
16162.3
16238.7
16320.2
619.609
1163.34
1664.05
2256.1
2748.6
3187.8
3495.66
3808.82
4023.52
4332.94
4551.21
4851.74
5044.97
5319.08
5473.46
5716.55
5826.02
6033.08
487.989
592.144
710.4
860.043
1000.04
1151.76
1261.87
1393.03
1481
1604.17
1684.84
1800.68
1870.17
1976.02
2032.53
2126.76
2170.28
2261.18
436.898
485.298
519.144
560.664
601.185
656.653
698.846
753.26
791.036
841.651
875.193
922.503
951.562
995.391
1019.6
1059.64
1078.92
1118.81
434.986
448.055
457.717
470.829
482.611
502.963
519.094
542.166
559.119
582.117
598.08
620.175
634.436
655.401
667.578
687.334
697.232
717.142
437.805
438.539
440.428
442.602
445.667
451.207
456.09
464.77
471.419
481.344
488.482
498.756
505.621
515.864
522.033
532.088
537.297
547.661
438.701
436.884
435.74
434.671
434.601
434.811
435.96
437.206
438.861
441.972
444.359
448.344
451.017
455.411
458.095
462.71
465.197
470.202
438.962
436.755
434.811
433.005
431.428
430.204
429.143
428.472
428.058
428.082
428.248
428.729
429.228
430.278
430.996
432.402
433.246
435.074
438.996
436.79
434.674
432.741
430.854
429.191
427.581
426.205
424.906
423.88
422.9
422.212
421.502
421.116
420.669
420.525
420.279
420.422
438.996
436.794
434.665
432.695
430.776
429.013
427.294
425.731
424.205
422.849
421.516
420.368
419.219
418.271
417.291
416.541
415.701
415.133
438.997
436.787
434.665
432.678
430.764
428.975
427.247
425.638
424.078
422.636
421.232
419.948
418.69
417.556
416.433
415.443
414.445
413.583
438.999
436.781
434.664
432.667
430.757
428.957
427.231
425.605
424.043
422.574
421.159
419.831
418.549
417.35
416.19
415.11
414.062
413.088
439
436.777
434.661
432.658
430.75
428.942
427.218
425.584
424.023
422.542
421.127
419.784
418.499
417.279
416.111
415.002
413.94
412.932
439.001
436.774
434.659
432.652
430.743
428.931
427.206
425.567
424.005
422.519
421.102
419.754
418.466
417.24
416.069
414.953
413.885
412.869
439.001
436.773
434.656
432.647
430.737
428.922
427.196
425.553
423.99
422.501
421.082
419.73
418.44
417.211
416.037
414.918
413.848
412.827
439.001
436.772
434.655
432.644
430.732
428.915
427.187
425.542
423.976
422.485
421.064
419.71
418.418
417.186
416.01
414.889
413.817
412.794
439
436.769
434.65
432.637
430.723
428.904
427.174
425.527
423.959
422.466
421.043
419.687
418.393
417.159
415.982
414.858
413.785
412.76
439
436.771
434.652
432.64
430.727
428.908
427.178
425.531
423.963
422.469
421.045
419.688
418.394
417.159
415.981
414.856
413.783
412.757
439.001
436.772
434.654
432.643
430.731
428.912
427.183
425.536
423.968
422.475
421.051
419.694
418.4
417.166
415.988
414.863
413.79
412.764
439.001
436.772
434.656
432.645
430.735
428.917
427.189
425.542
423.976
422.483
421.062
419.705
418.413
417.18
416.004
414.881
413.811
412.788
439.002
436.773
434.661
432.649
430.742
428.924
427.201
425.556
423.998
422.51
421.101
419.753
418.478
417.258
416.107
415.001
413.962
412.96
438.998
436.772
434.673
432.66
430.768
428.956
427.269
425.661
424.174
422.759
421.456
420.214
419.082
417.998
417.027
416.081
415.259
414.429
438.922
436.742
434.797
432.819
431.064
429.445
428.082
426.861
425.958
425.142
424.563
424.058
423.744
423.514
423.409
423.416
423.515
423.519
438.073
436.446
436.433
434.953
434.862
434.935
435.349
436.455
438.642
440.666
443.397
445.769
448.812
451.357
454.583
457.125
460.431
462.825
438.394
439.9
448.51
453.656
459.24
466.942
477.969
488.657
501.297
512.43
525.009
535.614
547.639
557.393
568.702
577.438
588.014
595.676
441.608
468.816
513.93
541.407
585.499
627.535
673.358
713.946
757.133
793.216
831.985
862.847
897.105
923.037
953.301
974.995
1002.27
1021.1
546.815
698.538
880.547
1071.78
1285.6
1461.02
1624.89
1762.09
1896.02
2002.29
2110.1
2190.1
2276.56
2336.12
2407.6
2453.03
2517.58
2560.99
1512.11
2632.09
3799.83
5105.95
6009.07
6687.05
7212
7618.81
7943.9
8183.05
8388.1
8530.83
8668.26
8759.57
8873.63
8945.73
9058.97
9124.25
23059.2
24521.5
25583.8
26334.4
26824.8
27143
27313.2
27411
27418.4
27401.4
27361.4
27295.3
27220.5
27140.4
27060.1
26981.1
26903.8
26829.5
11463.3
2514.6
2517.34
2520.42
2523.72
2527.33
2532.07
2538.49
2546.98
2557.18
2567.9
2578.4
2588.32
2597.21
2605.17
2611.95
2617.67
2622.38
2626.07
2628.4
2630.53
2631.57
2631.79
2630.36
2627.36
2622.61
2616.19
2608.56
2600.68
2594.14
2590.58
2590.34
2592.38
2595.24
2598.21
2601.21
2604.21
2607.23
2610.29
2613.64
2617.52
2623.1
2630.71
2639.35
2646.88
2652.24
2655.21
2657.38
2659.54
2662.37
2667.21
2676.98
2682.79
2691.47
2704.14
2732.28
2858.81
3073.81
3285.5
3477.83
3649.99
3805.57
3947.37
4078.68
4201.86
4316.54
4421.53
4519.69
4611.18
4697.53
4779.19
4857.07
4931.57
5003.3
5072.52
5139.61
5204.73
5268.21
5330.13
5390.62
5449.82
5507.75
5564.5
5620.09
5674.54
5727.88
5780.08
5831.16
5881.08
5929.83
5977.38
6023.7
6068.76
6112.53
6154.99
6196.14
6236.03
6274.75
6312.53
6349.67
6385.74
6420.77
6454.71
6487.6
6519.37
6550.02
6579.54
6607.89
6635.05
6661.01
6685.76
6709.27
6731.54
6752.57
6772.36
6790.93
6808.32
6824.57
6839.75
6853.95
6867.34
6879.05
6884.31
6894.73
6897.77
6904.38
6907.57
6908.89
6908.56
6907.35
6905.15
6900.8
6896.33
6889.93
6882.58
6873.85
6864.07
6853.07
6840.99
6827.76
6813.46
6798.01
6781.7
6764.34
6746.15
6727.09
6707.25
6686.64
6665.37
6643.44
6620.95
6597.98
6574.46
6550.55
6526.19
6501.81
6477.34
6453.08
6428.96
6405.19
6381.81
6358.96
6336.73
6315.19
6294.4
6274.47
6255.52
6237.55
6220.63
6204.84
6190.15
6176.53
6163.93
6152.28
6141.14
6130.07
6118.64
6104.7
6098.68
6023.48
11463.5
1999
1039.99
869.077
746.603
642.086
649.962
655.145
647.094
626.141
600.37
573.687
548.781
527.916
511.642
500.463
492.815
492.187
492.318
509.23
534.227
592.288
671.039
764.767
867.05
972.454
1072.38
1162.36
1228.75
1273.24
1267.79
1237.23
1158.55
1035.37
890.715
750.658
626.331
557.736
517.822
477.06
451.602
445.728
449.805
464.939
482.943
509.665
533.257
565.774
629.337
730.297
913.703
1303.56
1730.64
2071.22
2260.21
2383.09
2461.77
2497.09
2502.37
2453.59
2385.83
2312.4
2241.93
2177.93
2121.81
2074.15
2034.56
2002.85
1977.86
1958.92
1944.93
1935.13
1929.73
1926.01
1924.64
1924.5
1926.72
1929.46
1933.17
1937.49
1942.22
1947.32
1952.6
1958.04
1963.52
1969.02
1974.46
1979.81
1985.04
1990.13
1995.06
1999.83
2004.46
2008.98
2013.47
2018.03
2022.85
2028.23
2034.55
2042.28
2050.45
2058.25
2065.82
2073.14
2080.21
2087.02
2093.58
2099.88
2105.92
2111.7
2117.23
2122.5
2127.52
2132.3
2136.83
2141.13
2145.2
2149.04
2152.65
2155.99
2159
2161.57
2163.63
2165.95
2167.52
2169.07
2169.6
2169.65
2169.49
2169.65
2168.49
2166.94
2165.38
2163.51
2161.41
2159.06
2156.24
2152.92
2149.38
2147.14
2141.37
2139.57
2133.21
2130.68
2124.13
2120.7
2114.48
2110.21
2104.22
2098.73
2093.72
2087.27
2082.07
2075.41
2069.86
2063.2
2057.36
2050.89
2044.94
2038.71
2032.79
2026.92
2021.2
2015.62
2010.21
2005.04
2000.07
1995.32
1990.86
1986.68
1982.77
1979.17
1975.9
1973.15
1970.88
1969.23
1968.31
1968.62
1971.4
1987.18
11463.5
2037.33
824.261
631.764
662.888
708.488
690.325
638.599
576.334
516.632
462.326
416.904
380.718
351.921
329.145
311.336
297.568
287.403
280.199
275.981
276.161
282.255
291.737
311.591
340.666
380.206
428.772
486.611
547.145
607.89
656.567
692.38
703.452
693.18
664.314
610.358
542.546
478.763
410.597
367.468
355.046
363.271
383.027
407.899
440.071
513.33
628.095
776.978
1055.57
1320.69
1501.57
1639.33
1751.71
1805.81
1807.91
1773.77
1718.86
1647.75
1572.95
1500.05
1437.71
1384.61
1341.62
1307.19
1280.29
1259.61
1243.99
1232.49
1224.22
1218.51
1215.26
1213.04
1212.47
1212.34
1213.31
1214.92
1217.04
1219.48
1222.2
1225.13
1228.2
1231.38
1234.63
1237.91
1241.22
1244.52
1247.8
1251.07
1254.3
1257.51
1260.69
1263.86
1267.04
1270.24
1273.51
1276.87
1280.38
1284.07
1287.95
1291.93
1295.79
1299.51
1303.09
1306.54
1309.85
1313.02
1316.05
1318.93
1321.68
1324.29
1326.76
1329.1
1331.29
1333.35
1335.26
1337.05
1338.69
1340.18
1341.53
1342.71
1343.71
1344.53
1345.19
1345.77
1346.13
1346.38
1346.5
1346.18
1345.3
1344.85
1343.83
1342.8
1341.7
1340.43
1339.03
1337.47
1335.7
1333.77
1331.76
1329.8
1327.22
1325.22
1322.34
1320.06
1316.97
1314.42
1311.26
1308.43
1305.18
1302.04
1298.92
1295.48
1292.27
1288.72
1285.41
1281.84
1278.46
1274.94
1271.56
1268.13
1264.8
1261.52
1258.31
1255.19
1252.15
1249.24
1246.43
1243.74
1241.21
1238.83
1236.62
1234.62
1232.86
1231.44
1230.4
1229.87
1230
1231.14
1234.32
1246.66
11463.5
2026.56
964.34
960.706
943.338
823.625
705.256
593.917
504.36
436.807
385.063
344.088
311.862
286.667
266.968
251.572
239.58
230.367
223.464
218.611
215.492
215.363
216.357
220.75
227.857
240.253
258.016
282.138
312.581
346.924
381.514
414.23
438.81
457.508
456.751
447.515
427.047
391.474
367.603
384.61
452.869
538.884
608.203
674.915
769.279
912.564
1096.47
1260.73
1350.36
1417.38
1469.36
1492.35
1466.38
1383.11
1345.08
1276.84
1221.07
1164.32
1117.19
1076.2
1043.54
1017.22
996.933
981.452
969.952
961.621
955.773
951.856
949.712
948.695
948.448
948.869
950.02
951.564
953.531
955.781
958.249
960.881
963.643
966.5
969.426
972.401
975.407
978.43
981.461
984.49
987.513
990.525
993.526
996.516
999.498
1002.48
1005.46
1008.45
1011.45
1014.48
1017.52
1020.57
1023.6
1026.58
1029.45
1032.22
1034.89
1037.45
1039.91
1042.26
1044.5
1046.63
1048.65
1050.56
1052.36
1054.05
1055.62
1057.09
1058.43
1059.66
1060.77
1061.76
1062.62
1063.34
1063.93
1064.38
1064.71
1064.92
1064.99
1064.95
1064.75
1064.33
1063.71
1063.1
1062.27
1061.37
1060.35
1059.2
1057.93
1056.54
1055.02
1053.38
1051.68
1049.87
1047.89
1045.95
1043.76
1041.64
1039.28
1036.99
1034.52
1032.08
1029.5
1026.92
1024.3
1021.59
1018.91
1016.12
1013.39
1010.59
1007.83
1005.05
1002.32
999.595
996.919
994.286
991.707
989.189
986.741
984.373
982.09
979.901
977.819
975.853
974.023
972.353
970.873
969.639
968.7
968.198
968.252
968.986
971.24
978.738
11463.6
2209.35
1430.83
1241.77
1004.64
787.124
614.974
495.537
412.313
352.706
308.958
277.106
253.828
236.395
223.02
212.549
204.289
197.798
192.824
189.208
186.823
185.894
186.165
187.814
190.684
196.156
204.38
216.037
231.809
252.113
275.258
298.93
320.087
338.293
349.256
350.574
352.54
385.827
447.701
567.687
662.93
745.662
839.592
950.435
1059.06
1143.07
1205.29
1254.1
1279.45
1282.7
1236.14
1173.59
1128.01
1072.52
1031.78
984.373
948.696
915.193
888.731
866.825
849.913
836.939
827.418
820.661
816.089
813.38
812.134
811.777
812.191
813.35
814.975
817.003
819.365
821.966
824.769
827.721
830.786
833.939
837.157
840.422
843.719
847.037
850.364
853.693
857.017
860.331
863.631
866.915
870.181
873.427
876.653
879.859
883.044
886.206
889.344
892.452
895.519
898.531
901.476
904.34
907.112
909.791
912.375
914.862
917.249
919.535
921.716
923.793
925.764
927.628
929.383
931.029
932.562
933.983
935.289
936.477
937.542
938.483
939.296
939.978
940.527
940.943
941.226
941.367
941.392
941.352
941.12
940.718
940.179
939.547
938.775
937.891
936.887
935.762
934.519
933.159
931.682
930.096
928.423
926.641
924.755
922.805
920.736
918.619
916.393
914.129
911.774
909.383
906.915
904.416
901.877
899.289
896.686
894.044
891.402
888.737
886.086
883.434
880.806
878.196
875.621
873.084
870.594
868.156
865.778
863.468
861.232
859.076
857.014
855.055
853.212
851.504
849.956
848.601
847.486
846.715
846.379
846.692
847.958
852.148
11463.5
2824.39
1794.3
1296.28
914.69
653.628
499.926
399.591
333.909
290.671
261.449
240.251
224.041
211.038
200.479
191.887
184.942
179.447
175.25
172.229
170.305
169.526
169.771
170.93
173.244
177.147
182.829
190.676
201.151
214.739
231.224
249.029
267.397
287.296
311.15
354.054
421.894
539.984
655.061
747.787
833.319
917.924
991.376
1045.12
1087.21
1119.21
1132.51
1122.63
1072.6
1032.28
990.615
948.362
911.484
874.482
844.672
816.184
793.901
774.614
759.62
747.902
739.291
733.227
729.288
727.318
726.63
726.744
727.909
729.695
731.985
734.687
737.686
740.924
744.35
747.916
751.592
755.35
759.169
763.032
766.924
770.833
774.751
778.667
782.574
786.468
790.343
794.194
798.019
801.814
805.577
809.305
812.996
816.647
820.254
823.814
827.323
830.773
834.155
837.458
840.679
843.811
846.85
849.793
852.639
855.384
858.025
860.56
862.987
865.302
867.505
869.592
871.561
873.41
875.137
876.739
878.217
879.563
880.776
881.852
882.787
883.58
884.229
884.731
885.086
885.286
885.358
885.346
885.154
884.792
884.286
883.651
882.877
881.973
880.937
879.769
878.474
877.053
875.508
873.851
872.088
870.214
868.237
866.17
864.006
861.764
859.435
857.04
854.572
852.047
849.46
846.829
844.155
841.441
838.702
835.935
833.157
830.366
827.579
824.797
822.031
819.285
816.569
813.888
811.251
808.663
806.131
803.659
801.256
798.927
796.681
794.528
792.478
790.548
788.763
787.139
785.713
784.559
783.769
783.508
783.981
785.949
11464.1
3467.58
1887.84
1154.93
740.219
520.788
397.779
327.844
285.057
256.364
235.695
219.868
207.216
196.899
188.222
180.884
174.739
169.738
165.861
163.073
161.386
160.811
161.177
162.479
165.051
168.92
174.382
181.914
192
205.462
223.232
245.524
273.459
313.919
378.443
481.715
601.622
701.622
783.75
857.049
916.236
958.54
990.43
1012.23
1018.5
997.883
960.58
927.199
892.179
861.737
830.236
800.294
773.64
749.576
729.586
712.217
698.45
687.372
679.104
673.2
669.421
667.598
667.059
667.593
669.173
671.473
674.404
677.787
681.522
685.528
689.736
694.1
698.581
703.148
707.778
712.452
717.156
721.875
726.6
731.319
736.025
740.711
745.372
750
754.594
759.147
763.658
768.123
772.539
776.902
781.208
785.454
789.636
793.751
797.793
801.759
805.643
809.442
813.151
816.762
820.271
823.675
826.971
830.155
833.223
836.173
839
841.703
844.277
846.719
849.026
851.196
853.224
855.107
856.839
858.417
859.84
861.108
862.217
863.164
863.948
864.567
865.018
865.297
865.417
865.431
865.286
864.941
864.433
863.772
862.957
861.994
860.882
859.624
858.224
856.683
855.003
853.185
851.243
849.18
847.005
844.724
842.342
839.869
837.308
834.668
831.952
829.171
826.327
823.432
820.49
817.508
814.496
811.458
808.404
805.34
802.276
799.217
796.173
793.149
790.153
787.193
784.275
781.403
778.585
775.827
773.134
770.512
767.969
765.514
763.156
760.911
758.803
756.835
755.033
753.449
752.147
751.271
750.913
751.378
11469.9
3705.37
1729.74
928.61
583.429
424.689
343.968
296.667
265.771
243.495
226.689
213.198
201.966
192.415
184.188
177.082
171.082
166.207
162.514
160.08
158.885
158.923
160.014
162.4
165.854
170.726
177.648
187.519
200.747
219.915
248.111
288.083
348.74
441.172
544.323
634.616
711.098
779.069
835
876.631
908.361
924.497
927.604
903.782
874.266
846.046
818.354
793.719
769.197
745.827
722.607
701.537
683.165
667.369
654.327
643.677
635.485
629.439
625.39
623.36
622.727
623.243
624.939
627.535
630.887
634.824
639.23
643.994
649.032
654.278
659.677
665.188
670.78
676.426
682.107
687.808
693.517
699.221
704.91
710.574
716.206
721.798
727.345
732.841
738.283
743.666
748.986
754.242
759.431
764.546
769.583
774.54
779.411
784.194
788.884
793.479
797.977
802.379
806.67
810.845
814.899
818.829
822.631
826.302
829.837
833.234
836.488
839.595
842.553
845.357
848.003
850.49
852.813
854.97
856.959
858.773
860.41
861.868
863.143
864.234
865.139
865.854
866.38
866.706
866.85
866.871
866.701
866.318
865.749
865.003
864.082
862.991
861.732
860.31
858.727
856.987
855.09
853.055
850.883
848.579
846.149
843.603
840.947
838.189
835.336
832.396
829.375
826.28
823.119
819.901
816.633
813.322
809.978
806.606
803.216
799.816
796.413
793.016
789.632
786.268
782.932
779.63
776.369
773.155
769.993
766.89
763.852
760.885
757.995
755.191
752.483
749.885
747.425
745.063
742.842
740.804
738.994
737.512
736.395
735.625
11487.3
3641.43
1443.32
747.075
489.669
375.364
315.036
279.036
255.137
237.609
223.205
211.155
200.872
191.995
184.344
177.846
172.485
168.312
165.427
163.766
163.353
164.261
166.667
170.981
177.072
185.805
199.006
218.093
243.908
282.654
340.956
416.734
499.987
574.009
640.978
699.997
750.942
792.654
826.861
845.22
848.861
830.473
805.583
781.256
758.461
738.262
719.258
701.111
682.796
665.027
648.337
633.696
621.25
610.91
602.659
596.363
591.933
589.414
588.479
588.662
590.179
592.749
596.244
600.499
605.382
610.768
616.554
622.651
628.988
635.506
642.153
648.889
655.684
662.511
669.351
676.189
683.015
689.823
696.594
703.319
709.992
716.603
723.149
729.623
736.02
742.336
748.563
754.694
760.731
766.677
772.528
778.28
783.928
789.469
794.897
800.211
805.405
810.472
815.407
820.205
824.862
829.374
833.736
837.944
841.995
845.885
849.608
853.161
856.54
859.739
862.755
865.585
868.224
870.671
872.921
874.97
876.816
878.454
879.882
881.098
882.1
882.886
883.454
883.794
883.934
883.92
883.665
883.189
882.502
881.611
880.522
879.239
877.766
876.109
874.272
872.259
870.075
867.731
865.233
862.587
859.803
856.888
853.853
850.705
847.454
844.106
840.671
837.156
833.57
829.923
826.223
822.479
818.699
814.891
811.065
807.228
803.389
799.556
795.737
791.939
788.17
784.437
780.745
777.102
773.512
769.982
766.519
763.128
759.817
756.592
753.464
750.443
747.567
744.792
742.15
739.671
737.385
735.367
733.602
731.905
11514.7
3245.52
1167.73
625.249
438.194
352.145
304.474
274.66
253.553
237.793
225.424
215.101
206.185
198.417
191.755
186.271
182.077
179.337
178.208
178.652
180.728
184.443
190.801
200.548
213.816
233.035
260.606
298.14
347.7
406.513
466.687
526.018
581.353
631.026
675.289
712.944
745.721
768.366
775.704
766.219
747.72
727.465
708.044
691.145
676.02
662.038
648.251
634.411
620.595
607.541
595.787
585.742
577.472
570.947
566.129
563.02
561.617
561.404
562.516
564.806
568.178
572.485
577.603
583.406
589.774
596.602
603.8
611.286
618.996
626.889
634.897
642.975
651.092
659.219
667.333
675.407
683.411
691.337
699.215
707.039
714.798
722.485
730.093
737.615
745.045
752.376
759.607
766.739
773.76
780.659
787.432
794.072
800.578
806.944
813.168
819.244
825.169
830.938
836.552
842.003
847.289
852.404
857.343
862.102
866.677
871.063
875.256
879.251
883.042
886.624
889.994
893.147
896.08
898.789
901.272
903.523
905.539
907.317
908.854
910.149
911.198
912.001
912.555
912.85
912.935
912.8
912.406
911.766
910.889
909.78
908.447
906.894
905.129
903.156
900.982
898.612
896.054
893.315
890.404
887.331
884.105
880.736
877.234
873.609
869.872
866.03
862.095
858.075
853.981
849.823
845.609
841.351
837.056
832.734
828.394
824.045
819.695
815.353
811.027
806.725
802.454
798.221
794.033
789.896
785.815
781.799
777.854
773.986
770.201
766.506
762.911
759.424
756.059
752.813
749.698
746.734
743.941
741.376
738.997
736.448
11543.6
2760.87
971.4
557.06
408.81
339.51
300.413
275.213
258.076
245.267
234.94
226.234
218.809
212.62
207.775
204.583
203.366
204.155
207.533
212.917
220.236
229.99
243.629
262.056
286.986
318.889
357.108
399.998
445.214
490.232
533.248
573.605
610.307
642.607
671.764
695.341
705.274
704.793
693.237
679.184
663.78
649.824
637.565
626.723
616.498
606.356
595.977
585.499
575.324
566.012
557.954
551.36
546.282
542.698
540.789
540.214
540.886
542.835
545.955
550.14
555.289
561.296
568.071
575.5
583.458
591.851
600.593
609.602
618.789
628.032
637.364
646.769
656.213
665.666
675.094
684.479
693.816
703.099
712.309
721.436
730.461
739.377
748.18
756.864
765.421
773.842
782.122
790.253
798.232
806.057
813.725
821.23
828.569
835.739
842.736
849.557
856.2
862.661
868.937
875.023
880.914
886.604
892.089
897.363
902.423
907.263
911.879
916.266
920.417
924.327
927.992
931.407
934.569
937.475
940.12
942.502
944.616
946.459
948.028
949.321
950.336
951.075
951.528
951.709
951.64
951.296
950.674
949.781
948.622
947.204
945.534
943.62
941.468
939.087
936.482
933.662
930.633
927.407
923.992
920.398
916.638
912.723
908.664
904.473
900.16
895.737
891.215
886.606
881.92
877.169
872.363
867.512
862.626
857.715
852.787
847.853
842.922
838.002
833.102
828.23
823.393
818.598
813.853
809.163
804.536
799.981
795.502
791.108
786.803
782.595
778.492
774.5
770.629
766.88
763.264
759.795
756.484
753.38
750.43
747.113
11566.7
2327.04
874.101
529.685
400.206
338.26
304.161
283.321
269.168
258.683
250.433
243.811
238.666
235.204
233.805
234.333
237.581
243.602
251.96
261.769
274.365
290.921
311.657
336.493
365.034
396.351
429.273
462.654
495.429
526.826
555.799
582.299
607.042
629.096
641.049
643.837
639.473
632.214
621.962
611.913
602.563
594.347
586.864
579.688
572.427
564.911
557.205
549.61
542.541
536.397
531.443
527.784
525.612
524.811
525.177
526.893
529.893
534.059
539.287
545.488
552.559
560.378
568.771
577.673
587.103
596.997
607.276
617.861
628.688
639.731
650.88
662.062
673.227
684.352
695.379
706.279
717.047
727.675
738.148
748.463
758.633
768.664
778.559
788.313
797.915
807.353
816.615
825.693
834.583
843.282
851.789
860.099
868.21
876.117
883.819
891.312
898.595
905.665
912.519
919.152
925.557
931.728
937.66
943.348
948.789
953.977
958.908
963.577
967.976
972.102
975.947
979.509
982.784
985.768
988.458
990.852
992.945
994.733
996.214
997.387
998.25
998.804
999.049
998.994
998.639
997.98
997.018
995.757
994.203
992.363
990.245
987.859
985.212
982.313
979.172
975.796
972.194
968.378
964.358
960.146
955.756
951.199
946.489
941.638
936.658
931.564
926.369
921.086
915.726
910.302
904.826
899.306
893.754
888.18
882.594
877.006
871.426
865.862
860.324
854.82
849.357
843.941
838.582
833.286
828.062
822.918
817.86
812.896
808.031
803.27
798.622
794.091
789.684
785.406
781.266
777.273
773.433
769.794
766.304
762.288
11581.5
1993.47
801.747
507.855
396.201
342.74
313.826
296.363
284.832
276.713
270.877
266.901
265.013
264.767
266.884
271.526
278.66
288.075
299.308
312.778
329.024
347.908
369.017
391.839
415.798
440.28
464.712
488.37
510.515
531.641
552.047
570.419
582.41
586.946
587.337
585.248
580.644
575.227
569.459
564.133
559.215
554.592
550.002
545.264
540.299
535.181
530.119
525.43
521.45
518.493
516.96
516.516
517.209
519.123
522.161
526.268
531.237
537.207
544.251
552.313
561.29
571.078
581.614
592.801
604.519
616.683
629.215
642.024
655.042
668.235
681.451
694.571
707.507
720.183
732.594
744.742
756.636
768.298
779.751
791.014
802.102
813.032
823.82
834.461
844.938
855.227
865.308
875.168
884.796
894.195
903.365
912.305
921.009
929.476
937.702
945.685
953.424
960.917
968.16
975.149
981.877
988.337
994.524
1000.43
1006.06
1011.4
1016.45
1021.21
1025.67
1029.82
1033.65
1037.18
1040.38
1043.25
1045.81
1048.03
1049.93
1051.48
1052.71
1053.59
1054.13
1054.34
1054.21
1053.76
1052.97
1051.85
1050.4
1048.63
1046.54
1044.14
1041.44
1038.46
1035.19
1031.65
1027.85
1023.8
1019.52
1015
1010.27
1005.33
1000.21
994.91
989.453
983.846
978.108
972.254
966.3
960.26
954.147
947.973
941.75
935.488
929.199
922.893
916.581
910.273
903.98
897.711
891.475
885.281
879.134
873.043
867.018
861.066
855.199
849.423
843.746
838.174
832.71
827.362
822.137
817.037
812.066
807.234
802.552
798.021
793.644
789.473
785.468
780.79
11591.6
1973.92
795
508.093
402.181
353.441
327.886
312.974
303.611
297.632
294.323
293.113
293.584
296.292
301.183
308.155
316.995
327.524
339.662
353.645
369.163
385.826
403.247
421.041
438.822
456.202
472.84
489.202
505.571
519.927
530.366
536.168
539.255
540.442
540.566
539.563
537.929
536.123
534.266
532.474
530.689
528.884
527.089
525.276
523.386
521.56
519.993
518.947
518.548
518.731
519.502
521.35
524.399
528.69
534.191
540.89
548.843
557.991
568.291
579.686
591.979
605.021
618.709
632.924
647.539
662.468
677.669
692.976
708.295
723.533
738.531
753.184
767.411
781.161
794.425
807.221
819.581
831.584
843.347
854.933
866.346
877.62
888.804
899.882
910.813
921.554
932.069
942.332
952.314
962.035
971.499
980.703
989.644
998.315
1006.71
1014.84
1022.68
1030.25
1037.55
1044.55
1051.27
1057.68
1063.8
1069.6
1075.1
1080.27
1085.14
1089.68
1093.89
1097.77
1101.31
1104.5
1107.35
1109.85
1112
1113.8
1115.24
1116.32
1117.04
1117.41
1117.4
1117.06
1116.35
1115.28
1113.86
1112.09
1109.98
1107.52
1104.73
1101.61
1098.17
1094.43
1090.4
1086.08
1081.49
1076.64
1071.55
1066.21
1060.65
1054.89
1048.92
1042.78
1036.48
1030.02
1023.44
1016.74
1009.95
1003.08
996.136
989.139
982.099
975.028
967.936
960.834
953.733
946.645
939.58
932.549
925.561
918.624
911.741
904.927
898.191
891.542
884.992
878.548
872.217
866.002
859.908
853.944
848.114
842.418
836.861
831.458
826.22
821.142
816.217
811.476
806.928
801.592
11596.8
1910.58
778.442
510.165
412.271
367.591
344.774
331.756
323.801
319.483
317.812
317.746
320.068
324.362
330.349
337.817
346.584
356.521
367.515
379.416
391.971
404.914
417.995
430.986
443.702
456.002
467.803
478.265
486.694
493.428
499.011
503.57
507.435
510.856
513.87
516.488
518.789
520.858
522.718
524.4
525.906
527.168
528.019
528.528
529.173
530.159
531.675
533.907
536.991
541.057
546.369
552.901
560.713
569.792
580.09
591.58
604.275
618.165
633.275
649.342
666.034
683.178
700.646
718.317
736.065
753.756
771.235
788.47
805.384
821.855
837.677
852.722
866.941
880.36
893.019
904.966
916.22
926.969
937.617
948.305
958.877
969.405
980.05
990.728
1001.33
1011.77
1022
1031.97
1041.69
1051.15
1060.35
1069.27
1077.9
1086.23
1094.27
1102
1109.43
1116.56
1123.39
1129.91
1136.11
1141.99
1147.55
1152.77
1157.65
1162.21
1166.42
1170.3
1173.83
1177.01
1179.84
1182.31
1184.4
1186.14
1187.5
1188.52
1189.17
1189.42
1189.32
1188.86
1188.01
1186.79
1185.21
1183.26
1180.95
1178.28
1175.25
1171.88
1168.16
1164.11
1159.74
1155.05
1150.06
1144.79
1139.25
1133.44
1127.39
1121.09
1114.57
1107.83
1100.9
1093.8
1086.53
1079.14
1071.64
1064.03
1056.33
1048.55
1040.72
1032.84
1024.92
1016.98
1009.03
1001.07
993.132
985.211
977.324
969.483
961.697
953.972
946.313
938.738
931.258
923.881
916.62
909.48
902.467
895.584
888.834
882.231
875.776
869.468
863.309
857.307
851.469
845.795
840.278
834.931
829.815
823.827
11598.9
1891.83
779.738
520.277
427.272
385.056
363.496
351.305
343.964
340.299
339.044
339.434
342.198
346.628
352.378
359.172
366.813
375.217
384.274
393.867
403.878
414.22
424.864
435.479
445.761
455.51
464.472
472.941
480.856
488.337
495.452
502.141
508.237
513.773
519.085
524.183
529.101
533.889
538.593
543.292
548.087
553.008
558.21
563.858
570.045
576.921
584.612
593.219
602.837
613.581
625.577
638.837
653.451
669.259
686.009
703.557
721.776
740.481
759.447
778.576
797.848
817.205
836.557
855.806
874.849
893.584
911.899
929.701
946.865
963.218
978.681
993.044
1006.36
1018.8
1030.45
1041.36
1051.55
1061.15
1070.28
1079.03
1087.49
1095.97
1105.13
1114.53
1123.91
1133.15
1142.16
1150.93
1159.48
1167.78
1175.81
1183.55
1190.99
1198.12
1204.93
1211.42
1217.59
1223.45
1229
1234.24
1239.16
1243.76
1248.02
1251.94
1255.52
1258.78
1261.7
1264.28
1266.53
1268.42
1269.98
1271.17
1272
1272.47
1272.56
1272.36
1271.77
1270.8
1269.48
1267.8
1265.74
1263.32
1260.54
1257.41
1253.92
1250.09
1245.91
1241.38
1236.52
1231.33
1225.82
1220.01
1213.9
1207.52
1200.87
1193.97
1186.83
1179.45
1171.84
1164.03
1156.03
1147.86
1139.54
1131.11
1122.58
1113.95
1105.24
1096.46
1087.64
1078.78
1069.89
1060.99
1052.09
1043.2
1034.33
1025.49
1016.7
1007.97
999.315
990.742
982.269
973.901
965.646
957.509
949.506
941.64
933.915
926.333
918.897
911.613
904.477
897.498
890.681
884.028
877.543
871.227
865.07
859.077
853.357
846.719
11597.3
1873.19
783.335
532.588
441.513
400.733
380.537
368.747
361.574
358.071
356.905
357.38
360.15
364.415
369.931
376.446
383.837
392.098
401.085
410.634
420.645
430.773
440.905
451.101
461.43
471.962
482.803
493.596
504.376
515.188
526.034
536.902
547.854
558.932
570.063
581.248
592.499
603.83
615.277
626.893
638.705
650.843
663.47
676.708
690.621
705.329
720.842
737.136
754.198
772.04
790.693
810.324
830.336
850.541
870.936
891.421
911.873
932.152
952.127
971.72
990.885
1009.59
1027.78
1045.44
1062.52
1078.99
1094.82
1109.99
1124.47
1138.22
1151.23
1163.5
1174.84
1185.54
1195.65
1205.21
1214.19
1222.62
1230.28
1237.2
1243.79
1250.46
1257.61
1264.78
1271.81
1278.62
1285.17
1291.46
1297.5
1303.3
1308.84
1314.12
1319.12
1323.83
1328.24
1332.37
1336.22
1339.81
1343.12
1346.17
1348.93
1351.42
1353.61
1355.49
1357.08
1358.39
1359.41
1360.15
1360.59
1360.71
1360.57
1360.09
1359.26
1358.14
1356.7
1354.95
1352.89
1350.5
1347.78
1344.72
1341.34
1337.62
1333.58
1329.21
1324.52
1319.51
1314.18
1308.54
1302.58
1296.32
1289.75
1282.9
1275.77
1268.39
1260.76
1252.9
1244.79
1236.46
1227.92
1219.17
1210.24
1201.15
1191.91
1182.54
1173.07
1163.5
1153.86
1144.15
1134.4
1124.61
1114.81
1105.01
1095.21
1085.43
1075.68
1065.97
1056.32
1046.74
1037.23
1027.83
1018.55
1009.39
1000.35
991.447
982.678
974.052
965.574
957.248
949.075
941.063
933.223
925.557
918.062
910.739
903.586
896.606
889.789
883.135
876.792
869.534
11593.2
1864.3
790.553
541.471
453.002
414.486
395.616
384.643
378.54
375.899
375.323
377.106
381.156
387.077
394.475
403.179
413.176
423.81
435.13
447.557
461.025
475.024
489.815
505.582
522.435
540.408
559.427
579.266
599.805
620.883
642.342
664.086
686.081
708.258
730.529
752.946
775.539
798.122
820.612
842.974
865.202
887.351
909.488
931.693
954.1
977.215
1000.67
1024.08
1047.25
1070.03
1092.25
1113.44
1133.74
1153.18
1171.79
1189.55
1206.45
1222.46
1237.57
1251.79
1265.12
1277.6
1289.26
1300.13
1310.25
1319.64
1328.33
1336.36
1343.78
1350.62
1356.98
1363.21
1369.35
1375.29
1380.9
1386.12
1390.69
1394.92
1398.93
1402.87
1407.1
1411.64
1415.61
1419.13
1422.35
1425.33
1428.1
1430.7
1433.12
1435.37
1437.44