/*--------------------------------*- C++ -*----------------------------------*\
| =========                 |                                                 |
| \\      /  F ield         | OpenFOAM: The Open Source CFD Toolbox           |
|  \\    /   O peration     | Version:  2112                                  |
|   \\  /    A nd           | Website:  www.openfoam.com                      |
|    \\/     M anipulation  |                                                 |
\*---------------------------------------------------------------------------*/
FoamFile
{
    version     2.0;
    format      ascii;
    arch        "LSB;label=32;scalar=64";
    class       volScalarField;
    location    "300";
    object      p;
}
// * * * * * * * * * * * * * * * * * * * * * * * * * * * * * * * * * * * * * //

dimensions      [0 2 -2 0 0 0 0];

internalField   nonuniform List<scalar> 
12225
(
-5.31663
-6.16442
-6.54086
-6.65231
-6.7686
-6.91123
-7.04053
-7.14754
-7.2399
-7.32449
-7.40609
-7.48614
-7.56545
-7.64583
-7.72975
-7.82184
-7.92458
-8.05126
-5.58629
-6.21703
-6.5329
-6.63976
-6.75268
-6.89106
-7.01806
-7.12466
-7.21831
-7.30547
-7.38883
-7.46959
-7.54889
-7.62858
-7.71072
-7.79857
-7.88972
-7.98188
-5.77832
-6.21361
-6.50888
-6.63843
-6.75682
-6.89197
-7.01624
-7.12131
-7.21431
-7.30115
-7.38355
-7.46278
-7.54018
-7.61733
-7.69544
-7.77568
-7.85278
-7.91703
-5.91746
-6.236
-6.51718
-6.65643
-6.77019
-6.89619
-7.01469
-7.11676
-7.20792
-7.29311
-7.37405
-7.45181
-7.52756
-7.60231
-7.67652
-7.74982
-7.81684
-7.86962
-6.03751
-6.27874
-6.5329
-6.67265
-6.78237
-6.9015
-7.0155
-7.11518
-7.20469
-7.28832
-7.36782
-7.44397
-7.51768
-7.58951
-7.65946
-7.72639
-7.78598
-7.83223
-6.14374
-6.32547
-6.5472
-6.68577
-6.79378
-6.90743
-7.01704
-7.11425
-7.20196
-7.28397
-7.36183
-7.43613
-7.50752
-7.57628
-7.6421
-7.70359
-7.75745
-7.79922
-6.23756
-6.37362
-6.5636
-6.6988
-6.8049
-6.91297
-7.01793
-7.11248
-7.19831
-7.2786
-7.35471
-7.42706
-7.49608
-7.56186
-7.6239
-7.68085
-7.73031
-7.76918
-6.32105
-6.42321
-6.58402
-6.71291
-6.81607
-6.91843
-7.01853
-7.11018
-7.19391
-7.27228
-7.34644
-7.41671
-7.48331
-7.54618
-7.60478
-7.65796
-7.70405
-7.74103
-6.396
-6.47336
-6.60811
-6.72831
-6.82764
-6.92437
-7.01944
-7.10783
-7.18916
-7.26534
-7.33733
-7.40536
-7.46946
-7.52952
-7.58501
-7.63505
-7.67854
-7.7142
-6.46352
-6.5228
-6.63496
-6.74504
-6.83975
-6.93098
-7.02093
-7.10571
-7.18435
-7.25809
-7.32771
-7.39335
-7.45493
-7.51228
-7.56497
-7.61236
-7.65378
-7.68845
-6.52446
-6.57047
-6.66359
-6.76294
-6.85232
-6.93819
-7.023
-7.10391
-7.1796
-7.25071
-7.31781
-7.38095
-7.44001
-7.49479
-7.54496
-7.59008
-7.62981
-7.66366
-6.57494
-6.61202
-6.69066
-6.78018
-6.86415
-6.94519
-7.02535
-7.10254
-7.17533
-7.24389
-7.30858
-7.36939
-7.42618
-7.47873
-7.52682
-7.57013
-7.60853
-7.6417
-6.62026
-6.65081
-6.71737
-6.79756
-6.87597
-6.9523
-7.02793
-7.10138
-7.17118
-7.23714
-7.29939
-7.35789
-7.41247
-7.46294
-7.50912
-7.55084
-7.58807
-7.62063
-6.66642
-6.69146
-6.74689
-6.81733
-6.88932
-6.96037
-7.03103
-7.10021
-7.16652
-7.22944
-7.28889
-7.34479
-7.39694
-7.44519
-7.48941
-7.52952
-7.56557
-7.59749
-6.7117
-6.73212
-6.77787
-6.83875
-6.9037
-6.96902
-7.03438
-7.09889
-7.16125
-7.22074
-7.27709
-7.33014
-7.3797
-7.42564
-7.46787
-7.50638
-7.54126
-7.5725
-6.75357
-6.77027
-6.80804
-6.8602
-6.918
-6.97741
-7.03738
-7.097
-7.15513
-7.21093
-7.26398
-7.31404
-7.36095
-7.40456
-7.44483
-7.48178
-7.51551
-7.54605
-6.78843
-6.80231
-6.83398
-6.87888
-6.93016
-6.98395
-7.03879
-7.09371
-7.14764
-7.19973
-7.24948
-7.29661
-7.34092
-7.3823
-7.42072
-7.4562
-7.48884
-7.5187
-6.81097
-6.82298
-6.85062
-6.89047
-6.93681
-6.98607
-7.03666
-7.0876
-7.13789
-7.1867
-7.23351
-7.27801
-7.32001
-7.35943
-7.39622
-7.43042
-7.4621
-7.49134
-6.81281
-6.82416
-6.85044
-6.8884
-6.93255
-6.97944
-7.0276
-7.07612
-7.12406
-7.17066
-7.21541
-7.25804
-7.29839
-7.3364
-7.37203
-7.40533
-7.43638
-7.46527
-6.78656
-6.7993
-6.82839
-6.86933
-6.91552
-6.96348
-7.01219
-7.06096
-7.10887
-7.15518
-7.19948
-7.24161
-7.28145
-7.31898
-7.3542
-7.38719
-7.41803
-7.44684
-6.74748
-6.76294
-6.79771
-6.84461
-6.89502
-6.94572
-6.99654
-7.047
-7.09609
-7.1431
-7.1878
-7.23014
-7.27008
-7.30763
-7.34285
-7.37584
-7.40671
-7.43561
-6.6966
-6.71691
-6.76116
-6.81695
-6.8729
-6.92721
-6.98112
-7.03415
-7.08505
-7.13324
-7.17876
-7.22166
-7.26197
-7.29974
-7.33511
-7.36822
-7.39921
-7.42826
-6.63559
-6.66399
-6.72251
-6.78945
-6.85117
-6.90938
-6.96701
-7.02306
-7.07597
-7.12552
-7.17203
-7.21564
-7.25642
-7.29448
-7.33002
-7.36326
-7.39435
-7.42354
-6.56494
-6.60668
-6.68539
-6.76437
-6.83086
-6.89308
-6.95497
-7.01415
-7.06896
-7.1198
-7.1673
-7.21163
-7.25285
-7.29115
-7.32683
-7.36013
-7.3913
-7.42062
-6.48424
-6.5474
-6.65339
-6.74336
-6.81242
-6.8785
-6.94493
-7.00711
-7.06362
-7.11567
-7.16413
-7.20909
-7.25064
-7.28906
-7.32472
-7.35796
-7.38904
-7.41832
-6.39263
-6.48831
-6.62816
-6.7268
-6.79648
-6.86599
-6.93636
-7.00086
-7.0587
-7.11189
-7.16131
-7.20697
-7.24892
-7.28755
-7.32326
-7.35646
-7.38756
-7.41708
-6.28866
-6.4337
-6.60642
-6.70923
-6.78068
-6.85527
-6.92946
-6.99564
-7.05438
-7.10836
-7.15841
-7.20442
-7.24649
-7.28507
-7.32056
-7.35336
-7.38412
-7.41364
-6.16486
-6.3987
-6.59241
-6.68594
-6.7589
-6.84172
-6.92195
-6.99146
-7.05263
-7.10873
-7.16048
-7.20764
-7.25036
-7.28934
-7.32506
-7.3577
-7.38814
-7.41821
-5.98397
-6.39169
-6.61736
-6.68937
-6.75335
-6.83702
-6.91804
-6.98715
-7.04817
-7.10461
-7.1569
-7.20448
-7.24735
-7.28601
-7.32121
-7.35339
-7.38304
-7.41081
-5.72023
-6.31879
-6.61067
-6.69028
-6.75859
-6.84824
-6.93314
-7.00398
-7.06583
-7.1229
-7.17553
-7.2231
-7.26549
-7.30254
-7.33523
-7.36515
-7.39228
-7.41435
-8.42003
-8.42016
-8.42026
-8.4204
-8.42029
-8.41903
-8.41592
-8.41153
-8.40716
-8.40401
-8.4035
-8.40611
-8.41146
-8.41876
-8.42712
-8.43571
-8.4438
-8.45077
-8.45619
-8.45973
-8.46154
-8.46207
-8.4616
-8.46031
-8.45843
-8.45633
-8.45439
-8.4529
-8.45198
-8.45158
-8.45147
-8.45135
-8.45103
-8.45048
-8.44979
-8.44903
-8.44822
-8.44725
-8.44594
-8.44426
-8.44239
-8.4407
-8.43982
-8.44025
-8.44197
-8.44437
-8.44672
-8.44852
-8.44988
-8.45124
-8.45283
-8.45574
-8.46158
-8.46781
-8.47014
-8.46681
-8.46199
-8.46205
-8.47497
-8.50478
-8.55284
-8.61757
-8.69573
-8.78318
-8.87518
-8.96731
-9.05615
-9.13942
-9.21566
-9.28416
-9.34465
-9.39724
-9.44219
-9.47986
-9.51063
-9.53486
-9.55285
-9.56487
-9.57112
-9.57177
-9.56692
-9.55666
-9.54101
-9.52002
-9.49366
-9.46192
-9.42475
-9.38207
-9.33381
-9.27988
-9.2202
-9.1547
-9.0833
-9.006
-8.92286
-8.83394
-8.73916
-8.63824
-8.53083
-8.41673
-8.29592
-8.16849
-8.03446
-7.89381
-7.74656
-7.59269
-7.43223
-7.2652
-7.09164
-6.91163
-6.72525
-6.5326
-6.33381
-6.12902
-5.9184
-5.70213
-5.48044
-5.25357
-5.02177
-4.7853
-4.54444
-4.2995
-4.05084
-3.79884
-3.5439
-3.28626
-3.02614
-2.76388
-2.49997
-2.23482
-1.9688
-1.70228
-1.43566
-1.16933
-0.90365
-0.638977
-0.375669
-0.114048
0.145584
0.402956
0.657793
0.909846
1.15886
1.40461
1.64688
1.88548
2.12024
2.35104
2.57774
2.80026
3.0185
3.23242
3.44199
3.6472
3.84807
4.04462
4.23693
4.42506
4.60911
4.7892
4.96547
5.13805
5.30711
5.47282
5.63537
5.79495
5.95175
6.10598
6.25784
6.40753
6.55525
6.7012
6.84559
6.9886
7.13041
7.27117
7.41118
7.55097
7.69246
7.82543
-8.42152
-8.42179
-8.42236
-8.42305
-8.42326
-8.42242
-8.42008
-8.41681
-8.41417
-8.41347
-8.41523
-8.41945
-8.42567
-8.43318
-8.44125
-8.44923
-8.4566
-8.46299
-8.46815
-8.472
-8.47432
-8.4749
-8.47382
-8.47138
-8.46797
-8.46409
-8.46024
-8.45689
-8.45438
-8.45274
-8.45177
-8.45106
-8.45033
-8.44959
-8.44901
-8.44863
-8.4483
-8.44778
-8.44686
-8.44547
-8.44389
-8.44268
-8.44243
-8.44345
-8.44548
-8.44772
-8.4494
-8.45005
-8.45034
-8.45086
-8.44974
-8.44697
-8.44629
-8.45281
-8.46444
-8.47134
-8.47115
-8.47515
-8.49303
-8.52941
-8.58495
-8.6571
-8.74131
-8.83203
-8.92421
-9.01392
-9.09851
-9.17643
-9.2469
-9.3097
-9.36494
-9.41289
-9.45388
-9.48827
-9.51637
-9.53849
-9.55483
-9.5656
-9.57094
-9.57094
-9.56566
-9.55516
-9.53944
-9.5185
-9.49231
-9.46085
-9.42405
-9.38185
-9.33417
-9.28092
-9.22203
-9.15742
-9.08698
-9.01063
-8.92827
-8.83978
-8.74501
-8.64394
-8.53657
-8.42293
-8.30294
-8.17649
-8.04351
-7.90395
-7.75779
-7.60503
-7.44567
-7.27976
-7.10733
-6.92844
-6.74318
-6.55165
-6.35396
-6.15025
-5.94069
-5.72547
-5.50479
-5.27888
-5.04799
-4.81236
-4.57224
-4.32793
-4.07978
-3.82812
-3.57328
-3.31567
-3.05575
-2.79387
-2.53033
-2.2655
-1.99972
-1.73339
-1.46692
-1.20068
-0.935028
-0.670326
-0.406929
-0.145161
0.114671
0.372288
0.62742
0.879808
1.1292
1.37537
1.61809
1.85718
2.09247
2.32382
2.5511
2.77421
2.99306
3.20761
3.41781
3.62366
3.82517
4.02236
4.2153
4.40405
4.5887
4.76938
4.9462
5.11932
5.28889
5.45509
5.61808
5.77808
5.93526
6.08984
6.242
6.39197
6.53994
6.68611
6.8307
6.97392
7.11598
7.25704
7.39753
7.53744
7.68109
7.81235
-8.42306
-8.4231
-8.42325
-8.42349
-8.4237
-8.42368
-8.42362
-8.42415
-8.426
-8.42952
-8.43464
-8.44103
-8.44825
-8.4558
-8.46324
-8.47019
-8.47634
-8.48147
-8.48545
-8.48822
-8.48971
-8.48986
-8.48872
-8.48644
-8.48321
-8.4792
-8.47464
-8.46978
-8.46488
-8.46022
-8.456
-8.45238
-8.44948
-8.44742
-8.44615
-8.44542
-8.44481
-8.44397
-8.44287
-8.44179
-8.44126
-8.44186
-8.44387
-8.44698
-8.45011
-8.4521
-8.45192
-8.44857
-8.44371
-8.44047
-8.44149
-8.4448
-8.44868
-8.45867
-8.47699
-8.5003
-8.52641
-8.55817
-8.59907
-8.65027
-8.71095
-8.77915
-8.85234
-8.92779
-9.00306
-9.07618
-9.1457
-9.21064
-9.27037
-9.32454
-9.37298
-9.41568
-9.45267
-9.48406
-9.50995
-9.53046
-9.54569
-9.55571
-9.56059
-9.56037
-9.55507
-9.54468
-9.52921
-9.50862
-9.48288
-9.45194
-9.41573
-9.3742
-9.32725
-9.27481
-9.21682
-9.15318
-9.08383
-9.00867
-8.9276
-8.84045
-8.74705
-8.64732
-8.54125
-8.42889
-8.31018
-8.18506
-8.05344
-7.91529
-7.77057
-7.61926
-7.46137
-7.29693
-7.12597
-6.94855
-6.76475
-6.57467
-6.37842
-6.17613
-5.96797
-5.75411
-5.53476
-5.31014
-5.0805
-4.84606
-4.60709
-4.36389
-4.11679
-3.86612
-3.6122
-3.35545
-3.09627
-2.83504
-2.57209
-2.30777
-2.04244
-1.77649
-1.51031
-1.24426
-0.978741
-0.714099
-0.450691
-0.188839
0.071147
0.328977
0.584387
0.837102
1.08688
1.33347
1.57667
1.81629
2.05214
2.28409
2.512
2.73576
2.95529
3.17054
3.38145
3.58801
3.79023
3.98813
4.18177
4.37121
4.55653
4.73785
4.91529
5.08897
5.25907
5.42574
5.58916
5.74953
5.90703
6.06186
6.21423
6.36433
6.51238
6.65857
6.80314
6.94629
7.08826
7.22925
7.36981
7.5092
7.6549
7.78136
-8.42409
-8.42382
-8.42345
-8.42341
-8.42447
-8.42713
-8.4313
-8.43669
-8.44301
-8.44997
-8.45729
-8.46472
-8.47201
-8.47897
-8.48539
-8.49108
-8.49589
-8.4997
-8.50242
-8.50402
-8.50448
-8.5038
-8.50201
-8.4992
-8.49547
-8.49093
-8.48567
-8.47981
-8.47348
-8.46684
-8.46008
-8.45349
-8.44738
-8.44205
-8.43766
-8.43421
-8.43155
-8.42963
-8.42863
-8.42911
-8.43167
-8.43621
-8.44155
-8.44602
-8.44783
-8.44702
-8.44473
-8.44212
-8.44072
-8.44231
-8.44979
-8.46375
-8.48258
-8.50662
-8.5366
-8.57175
-8.61101
-8.65399
-8.70115
-8.75285
-8.80893
-8.86875
-8.93124
-8.99505
-9.05878
-9.12113
-9.18101
-9.23757
-9.29018
-9.33841
-9.38198
-9.42075
-9.45462
-9.48357
-9.5076
-9.52673
-9.54095
-9.55029
-9.55474
-9.55431
-9.54897
-9.53871
-9.52349
-9.50326
-9.47797
-9.44757
-9.41198
-9.37112
-9.32491
-9.27327
-9.21612
-9.15337
-9.08493
-9.01072
-8.93063
-8.84452
-8.75227
-8.65378
-8.54901
-8.43795
-8.32055
-8.19674
-8.06646
-7.92967
-7.78632
-7.63641
-7.47992
-7.31689
-7.14734
-6.97133
-6.78893
-6.60023
-6.40535
-6.20441
-5.99756
-5.78499
-5.56689
-5.34349
-5.115
-4.88167
-4.64377
-4.4016
-4.15547
-3.90571
-3.65266
-3.39669
-3.13821
-2.87757
-2.61511
-2.35123
-2.08628
-1.82066
-1.55472
-1.28885
-1.02342
-0.758811
-0.495361
-0.233405
0.0267515
0.284812
0.540507
0.793561
1.04372
1.29075
1.53443
1.77457
2.01098
2.24352
2.47206
2.69648
2.91669
3.13263
3.34426
3.55154
3.75448
3.9531
4.14746
4.33759
4.5236
4.70558
4.88365
5.05794
5.2286
5.3958
5.5597
5.72049
5.87837
6.03352
6.18614
6.33644
6.48462
6.63088
6.77544
6.91854
7.06043
7.20125
7.34163
7.48002
7.62601
7.74594
-8.42619
-8.42563
-8.42513
-8.42628
-8.43041
-8.43705
-8.44511
-8.45378
-8.46251
-8.47093
-8.47888
-8.48631
-8.49317
-8.49938
-8.50487
-8.50952
-8.51324
-8.51596
-8.51763
-8.51823
-8.51774
-8.51617
-8.51355
-8.50993
-8.50535
-8.4999
-8.49362
-8.4866
-8.47895
-8.47076
-8.46212
-8.45322
-8.4443
-8.43572
-8.42785
-8.42115
-8.41608
-8.41315
-8.41294
-8.41581
-8.42127
-8.42748
-8.43267
-8.43611
-8.43775
-8.43847
-8.43968
-8.44319
-8.45082
-8.46352
-8.48228
-8.50722
-8.53749
-8.57186
-8.60919
-8.64889
-8.69072
-8.73493
-8.78188
-8.8317
-8.88418
-8.93882
-8.99485
-9.05139
-9.10751
-9.16232
-9.21507
-9.26512
-9.31196
-9.3552
-9.39455
-9.42982
-9.46084
-9.4875
-9.50973
-9.52745
-9.54062
-9.54919
-9.55313
-9.55238
-9.5469
-9.53665
-9.52156
-9.50158
-9.47664
-9.44667
-9.41158
-9.3713
-9.32574
-9.2748
-9.2184
-9.15644
-9.08883
-9.01547
-8.93626
-8.85109
-8.75984
-8.66242
-8.55877
-8.44884
-8.33256
-8.20989
-8.08075
-7.9451
-7.8029
-7.65413
-7.4988
-7.33692
-7.16851
-6.99364
-6.81236
-6.62476
-6.43095
-6.23106
-6.02524
-5.81366
-5.59652
-5.37401
-5.14639
-4.91388
-4.67676
-4.43531
-4.18987
-3.94075
-3.68829
-3.43286
-3.17484
-2.91458
-2.65245
-2.38881
-2.12408
-1.85862
-1.59281
-1.327
-1.06159
-0.796929
-0.533385
-0.271281
-0.0109371
0.24736
0.503327
0.756694
1.0072
1.25461
1.49869
1.73927
1.97615
2.20918
2.43823
2.66319
2.88394
3.10044
3.31263
3.52048
3.72399
3.92319
4.11809
4.30877
4.49531
4.6778
4.85636
5.03111
5.2022
5.36979
5.53405
5.69516
5.8533
6.00868
6.16147
6.31189
6.46014
6.60641
6.75093
6.89388
7.03554
7.17598
7.31589
7.45304
7.59836
7.71134
-8.4305
-8.4295
-8.42976
-8.43411
-8.44202
-8.4515
-8.46141
-8.47113
-8.48028
-8.48876
-8.49656
-8.50369
-8.5101
-8.51574
-8.52055
-8.52445
-8.52737
-8.52928
-8.53015
-8.52995
-8.52869
-8.52637
-8.52302
-8.51867
-8.51336
-8.50711
-8.49994
-8.49189
-8.48306
-8.47354
-8.46342
-8.45285
-8.44204
-8.43134
-8.42132
-8.4128
-8.40665
-8.40371
-8.40439
-8.4077
-8.41212
-8.41643
-8.42025
-8.42401
-8.42856
-8.4351
-8.44454
-8.45799
-8.47645
-8.50015
-8.52868
-8.56108
-8.59655
-8.63458
-8.67456
-8.71624
-8.75945
-8.80426
-8.85072
-8.89877
-8.94818
-8.9986
-9.04954
-9.10044
-9.15069
-9.19972
-9.24697
-9.29195
-9.33426
-9.37353
-9.40947
-9.44185
-9.47046
-9.49515
-9.51578
-9.53223
-9.54442
-9.55225
-9.55565
-9.55454
-9.54886
-9.53854
-9.52351
-9.50368
-9.47898
-9.44933
-9.41465
-9.37483
-9.3298
-9.27944
-9.22366
-9.16237
-9.09547
-9.02285
-8.9444
-8.86002
-8.76961
-8.67307
-8.57032
-8.4613
-8.34593
-8.22417
-8.09593
-7.96118
-7.81988
-7.672
-7.51755
-7.35653
-7.18898
-7.01493
-6.83446
-6.64765
-6.4546
-6.25545
-6.05032
-5.8394
-5.62288
-5.40096
-5.17387
-4.94185
-4.70519
-4.46416
-4.2191
-3.97032
-3.71816
-3.46298
-3.20516
-2.94506
-2.68305
-2.41949
-2.15478
-1.88932
-1.62347
-1.3576
-1.09209
-0.827307
-0.563604
-0.301312
-0.040751
0.217788
0.474016
0.727662
0.978464
1.22618
1.4706
1.71152
1.94875
2.18215
2.41157
2.63691
2.85805
3.07494
3.2875
3.49574
3.69962
3.89917
4.09443
4.28545
4.4723
4.65509
4.83391
5.00891
5.18021
5.34798
5.51237
5.67359
5.83179
5.9872
6.13998
6.29035
6.43849
6.5846
6.72888
6.87154
7.01279
7.15267
7.29189
7.42771
7.5722
7.6784
-8.43636
-8.43565
-8.43816
-8.44586
-8.45579
-8.466
-8.47594
-8.48537
-8.49419
-8.50239
-8.50993
-8.51676
-8.52283
-8.52806
-8.53239
-8.53576
-8.53814
-8.53948
-8.53976
-8.53898
-8.53715
-8.53427
-8.53037
-8.52547
-8.51959
-8.51268
-8.50472
-8.49582
-8.48613
-8.47571
-8.46465
-8.45309
-8.44137
-8.42997
-8.41955
-8.41112
-8.40563
-8.40325
-8.40291
-8.40358
-8.40519
-8.40812
-8.413
-8.42022
-8.43027
-8.44414
-8.46244
-8.48508
-8.51173
-8.54189
-8.57519
-8.61105
-8.64897
-8.68873
-8.73002
-8.77262
-8.8163
-8.86096
-8.90651
-8.95283
-8.99976
-9.04704
-9.09435
-9.14131
-9.18749
-9.23247
-9.27583
-9.31719
-9.35619
-9.3925
-9.42584
-9.45597
-9.48267
-9.50576
-9.52506
-9.54044
-9.55176
-9.55892
-9.56181
-9.56035
-9.55444
-9.54401
-9.52896
-9.50921
-9.48468
-9.45527
-9.42088
-9.38143
-9.3368
-9.28691
-9.23164
-9.17089
-9.10456
-9.03254
-8.95473
-8.871
-8.78127
-8.68543
-8.58339
-8.47509
-8.36043
-8.23936
-8.11182
-7.97774
-7.83711
-7.68988
-7.53606
-7.37565
-7.20868
-7.03519
-6.85526
-6.66895
-6.47637
-6.27765
-6.07293
-5.86238
-5.64618
-5.42455
-5.19771
-4.96591
-4.72942
-4.48854
-4.24359
-3.99488
-3.74276
-3.4876
-3.22976
-2.96961
-2.70751
-2.44385
-2.17901
-1.91339
-1.64737
-1.38131
-1.1156
-0.850613
-0.586686
-0.324163
-0.063355
0.195431
0.451915
0.705814
0.956877
1.20486
1.44954
1.69071
1.92821
2.16185
2.39153
2.6171
2.83849
3.05561
3.26841
3.47684
3.68092
3.88066
4.07608
4.26724
4.45422
4.63711
4.81601
4.99104
5.16235
5.33009
5.49444
5.65555
5.81364
5.96887
6.12146
6.27158
6.41945
6.56523
6.70914
6.85134
6.99204
7.13122
7.26959
7.40403
7.54769
7.64758
-8.44163
-8.44222
-8.44782
-8.45721
-8.46716
-8.47686
-8.48622
-8.49518
-8.50367
-8.51162
-8.51894
-8.52556
-8.53138
-8.53634
-8.54037
-8.54343
-8.54546
-8.54644
-8.54636
-8.54522
-8.54302
-8.53977
-8.53551
-8.53023
-8.52387
-8.51637
-8.50784
-8.49849
-8.4884
-8.47769
-8.46646
-8.45487
-8.44331
-8.43246
-8.42316
-8.41614
-8.41128
-8.40758
-8.40453
-8.40295
-8.40398
-8.40795
-8.4154
-8.42712
-8.44331
-8.46366
-8.4878
-8.51531
-8.54592
-8.57918
-8.61479
-8.6524
-8.69172
-8.73246
-8.77437
-8.81721
-8.86081
-8.90504
-8.94978
-8.99489
-9.0402
-9.08549
-9.13049
-9.17493
-9.21847
-9.2608
-9.30156
-9.34045
-9.37714
-9.41136
-9.44283
-9.47131
-9.49658
-9.51844
-9.53671
-9.55122
-9.56183
-9.56842
-9.57087
-9.56907
-9.56293
-9.55236
-9.53727
-9.51755
-9.49311
-9.46386
-9.4297
-9.39052
-9.34621
-9.29666
-9.24179
-9.18147
-9.11559
-9.04406
-8.96674
-8.88354
-8.79434
-8.69904
-8.59755
-8.48979
-8.37566
-8.2551
-8.12805
-7.99446
-7.85428
-7.70749
-7.55408
-7.39406
-7.22745
-7.05429
-6.87465
-6.68861
-6.49627
-6.29774
-6.09318
-5.88274
-5.66663
-5.44504
-5.2182
-4.98638
-4.74983
-4.50888
-4.26381
-4.01496
-3.76268
-3.50733
-3.24928
-2.98889
-2.72655
-2.46263
-2.19752
-1.93163
-1.66532
-1.39898
-1.13299
-0.867726
-0.603527
-0.340736
-0.0796667
0.179373
0.436099
0.690231
0.941518
1.18971
1.4346
1.67597
1.91364
2.14745
2.37728
2.60299
2.8245
3.04173
3.25462
3.46314
3.66728
3.86705
4.06249
4.25364
4.44059
4.62342
4.80224
4.97716
5.14832
5.31587
5.47999
5.64087
5.79868
5.95361
6.10586
6.25563
6.4031
6.54845
6.69187
6.83351
6.97357
7.11194
7.24937
7.38241
7.52523
7.61942
-8.44455
-8.44707
-8.45483
-8.46422
-8.47348
-8.48258
-8.49149
-8.50014
-8.50841
-8.51621
-8.52343
-8.52995
-8.53569
-8.54056
-8.54449
-8.54742
-8.54932
-8.55016
-8.54992
-8.54862
-8.54624
-8.54283
-8.53836
-8.53281
-8.52612
-8.51837
-8.50976
-8.50044
-8.49045
-8.47993
-8.46909
-8.45825
-8.44798
-8.43879
-8.43098
-8.42436
-8.41835
-8.41282
-8.40849
-8.40672
-8.40876
-8.41521
-8.42624
-8.44175
-8.46132
-8.48464
-8.51139
-8.54118
-8.57367
-8.6085
-8.64534
-8.68393
-8.72397
-8.76522
-8.80743
-8.8504
-8.89399
-8.93803
-8.98237
-9.02684
-9.07125
-9.11542
-9.15912
-9.2021
-9.24409
-9.28482
-9.32399
-9.36133
-9.39657
-9.42943
-9.45967
-9.48703
-9.51132
-9.53231
-9.54982
-9.56369
-9.57374
-9.57986
-9.58192
-9.57983
-9.57347
-9.56276
-9.54759
-9.52786
-9.50347
-9.47433
-9.44031
-9.40132
-9.35724
-9.30797
-9.2534
-9.19341
-9.12789
-9.05673
-8.9798
-8.897
-8.8082
-8.7133
-8.61221
-8.50482
-8.39106
-8.27086
-8.14414
-8.01085
-7.87095
-7.72442
-7.57124
-7.41141
-7.24497
-7.07195
-6.89242
-6.70644
-6.51412
-6.31559
-6.11098
-5.90047
-5.68423
-5.46248
-5.23546
-5.00342
-4.76663
-4.5254
-4.28004
-4.03087
-3.77827
-3.52257
-3.26416
-3.00339
-2.74068
-2.47639
-2.21092
-1.94464
-1.67797
-1.41128
-1.14496
-0.879368
-0.614872
-0.351796
-0.0904698
0.168814
0.425758
0.680098
0.931568
1.17994
1.42496
1.66646
1.90423
2.13813
2.36802
2.59378
2.81531
3.03254
3.24541
3.45389
3.65795
3.85763
4.05294
4.24396
4.43073
4.61337
4.79195
4.96662
5.13748
5.30472
5.46849
5.62899
5.7864
5.94093
6.09275
6.24206
6.38905
6.5339
6.67676
6.81778
6.95712
7.09465
7.23111
7.36278
7.50476
7.59396
-8.44379
-8.44806
-8.45629
-8.46502
-8.47377
-8.48255
-8.49125
-8.49978
-8.50803
-8.51586
-8.52315
-8.52977
-8.53562
-8.54061
-8.54466
-8.54772
-8.54973
-8.55067
-8.55052
-8.54927
-8.54693
-8.54349
-8.53896
-8.5333
-8.52655
-8.51888
-8.51045
-8.50137
-8.4918
-8.48197
-8.47214
-8.46267
-8.45383
-8.4455
-8.43758
-8.43005
-8.42303
-8.41711
-8.41345
-8.41326
-8.41727
-8.42564
-8.4383
-8.45523
-8.47614
-8.50075
-8.52871
-8.5596
-8.59302
-8.62863
-8.66614
-8.70528
-8.7458
-8.78744
-8.83
-8.87328
-8.9171
-8.96127
-9.00561
-9.04994
-9.09409
-9.13787
-9.18105
-9.2234
-9.26468
-9.30464
-9.34303
-9.37959
-9.41407
-9.44619
-9.47571
-9.50241
-9.52606
-9.54648
-9.56345
-9.57682
-9.58643
-9.59217
-9.59391
-9.59156
-9.58502
-9.57417
-9.55893
-9.53918
-9.51481
-9.48573
-9.45183
-9.41297
-9.36906
-9.31998
-9.26563
-9.20589
-9.14063
-9.06975
-8.99311
-8.91059
-8.82208
-8.72746
-8.62663
-8.51949
-8.40597
-8.28598
-8.15946
-8.02634
-7.88659
-7.74016
-7.58706
-7.42728
-7.26085
-7.08781
-6.90821
-6.72215
-6.5297
-6.331
-6.12618
-5.91542
-5.69891
-5.47685
-5.24949
-5.01708
-4.7799
-4.53825
-4.29245
-4.04284
-3.78977
-3.53361
-3.27472
-3.01348
-2.7503
-2.48556
-2.21964
-1.95293
-1.68583
-1.41874
-1.15205
-0.88612
-0.621313
-0.357959
-0.0963868
0.163111
0.420249
0.674764
0.926393
1.1749
1.42003
1.6616
1.89941
2.13333
2.36319
2.5889
2.81036
3.02749
3.24022
3.44853
3.65239
3.85184
4.0469
4.23763
4.42411
4.60642
4.78467
4.95895
5.12941
5.29621
5.45952
5.61954
5.77646
5.93047
6.08178
6.23057
6.37701
6.52129
6.66353
6.80388
6.94247
7.07912
7.21461
7.34497
7.4861
7.57103
-8.4371
-8.44235
-8.45021
-8.45861
-8.46732
-8.47613
-8.48492
-8.49361
-8.50207
-8.51018
-8.51779
-8.52476
-8.53097
-8.53632
-8.54073
-8.54412
-8.54644
-8.54766
-8.54775
-8.54671
-8.54454
-8.54126
-8.53684
-8.53131
-8.52477
-8.51736
-8.50927
-8.50071
-8.49192
-8.48304
-8.47411
-8.46515
-8.45626
-8.44742
-8.43875
-8.43063
-8.42366
-8.4186
-8.4162
-8.41718
-8.42209
-8.43121
-8.44463
-8.4623
-8.48398
-8.50932
-8.53791
-8.56933
-8.60322
-8.63929
-8.67727
-8.71689
-8.7579
-8.80006
-8.84315
-8.88695
-8.93125
-8.97586
-9.0206
-9.06527
-9.1097
-9.15368
-9.19697
-9.23935
-9.28058
-9.32042
-9.35863
-9.39495
-9.42915
-9.46096
-9.49016
-9.51653
-9.53984
-9.55992
-9.57655
-9.58957
-9.59884
-9.60426
-9.60574
-9.60318
-9.59647
-9.58551
-9.57018
-9.55039
-9.52603
-9.49699
-9.46315
-9.42437
-9.38055
-9.3316
-9.2774
-9.21783
-9.15277
-9.08209
-9.00566
-8.92335
-8.83504
-8.7406
-8.63995
-8.53297
-8.41958
-8.29971
-8.17328
-8.04022
-7.9005
-7.75407
-7.60093
-7.44109
-7.27456
-7.10138
-6.92162
-6.73535
-6.54266
-6.34367
-6.13854
-5.92742
-5.71051
-5.48804
-5.26023
-5.02736
-4.78968
-4.54753
-4.3012
-4.05106
-3.79744
-3.54073
-3.28128
-3.01952
-2.75581
-2.49057
-2.22415
-1.95698
-1.68942
-1.42191
-1.15482
-0.888545
-0.623417
-0.359791
-0.0979764
0.161721
0.419033
0.673687
0.925444
1.17404
1.41924
1.66081
1.8986
2.13244
2.36221
2.58777
2.80906
3.02596
3.23844
3.44645
3.65
3.84908
4.04376
4.23409
4.42016
4.60205
4.77985
4.95365
5.12361
5.28986
5.45261
5.61205
5.76838
5.92182
6.07255
6.22075
6.36661
6.51026
6.65186
6.79149
6.9293
7.06507
7.1996
7.32871
7.46897
7.55035
-8.4222
-8.42763
-8.43539
-8.44427
-8.45356
-8.46285
-8.47207
-8.48119
-8.49012
-8.49874
-8.50689
-8.51442
-8.52119
-8.52709
-8.53201
-8.53589
-8.53866
-8.54029
-8.54076
-8.54009
-8.53826
-8.53528
-8.53117
-8.52603
-8.51996
-8.51312
-8.50563
-8.49763
-8.48919
-8.48038
-8.47123
-8.46176
-8.45208
-8.44245
-8.43329
-8.42509
-8.41838
-8.41376
-8.41193
-8.41355
-8.41911
-8.42894
-8.44309
-8.46144
-8.4837
-8.50949
-8.53844
-8.5702
-8.60447
-8.64096
-8.67942
-8.7196
-8.76123
-8.80407
-8.84789
-8.89246
-8.93755
-8.98293
-9.02842
-9.07381
-9.1189
-9.16347
-9.2073
-9.25016
-9.29181
-9.332
-9.37049
-9.40701
-9.44132
-9.47317
-9.50234
-9.5286
-9.55177
-9.57165
-9.58805
-9.60078
-9.60974
-9.61485
-9.61607
-9.6133
-9.60643
-9.59535
-9.57995
-9.56011
-9.53574
-9.50672
-9.4729
-9.43414
-9.39035
-9.34145
-9.28735
-9.22791
-9.163
-9.09249
-9.01624
-8.9341
-8.84595
-8.75165
-8.65111
-8.54423
-8.43092
-8.3111
-8.18471
-8.05166
-7.9119
-7.76541
-7.61217
-7.45219
-7.2855
-7.11213
-6.93214
-6.7456
-6.5526
-6.35327
-6.14775
-5.93622
-5.71887
-5.49592
-5.26763
-5.03424
-4.79603
-4.55332
-4.30643
-4.05572
-3.80152
-3.54422
-3.2842
-3.02187
-2.75761
-2.49184
-2.22491
-1.95723
-1.68919
-1.42123
-1.15375
-0.887112
-0.621676
-0.357786
-0.0957594
0.164105
0.421538
0.676282
0.928106
1.17674
1.42193
1.66346
1.90114
2.13484
2.36442
2.58977
2.81079
3.02739
3.23953
3.44715
3.65027
3.84889
4.04308
4.23291
4.41846
4.59983
4.77709
4.95034
5.11971
5.28534
5.44744
5.60622
5.7619
5.91469
6.06479
6.21237
6.35761
6.50062
6.64153
6.78043
6.91745
7.05233
7.18592
7.31386
7.45322
7.53174
-8.39788
-8.40304
-8.41155
-8.42182
-8.43226
-8.44237
-8.45225
-8.462
-8.47161
-8.48098
-8.48991
-8.49823
-8.50575
-8.51235
-8.51793
-8.52244
-8.52582
-8.52803
-8.52906
-8.52892
-8.5276
-8.52512
-8.52154
-8.51692
-8.51135
-8.50489
-8.49762
-8.48959
-8.48086
-8.47145
-8.46147
-8.45108
-8.4406
-8.43035
-8.42071
-8.41218
-8.40537
-8.40095
-8.39961
-8.40193
-8.40831
-8.41894
-8.43379
-8.45267
-8.47532
-8.50141
-8.53064
-8.56274
-8.59743
-8.63447
-8.67356
-8.71443
-8.75681
-8.80048
-8.84517
-8.89066
-8.93669
-8.98306
-9.02954
-9.07593
-9.12198
-9.16748
-9.21218
-9.25586
-9.29827
-9.33915
-9.37824
-9.41528
-9.44999
-9.48209
-9.51133
-9.53751
-9.5605
-9.58015
-9.59624
-9.60858
-9.61709
-9.62182
-9.62278
-9.61986
-9.61292
-9.60179
-9.58636
-9.56654
-9.54222
-9.51326
-9.4795
-9.44076
-9.39695
-9.34806
-9.29401
-9.23468
-9.1699
-9.09955
-9.02347
-8.94149
-8.85347
-8.75927
-8.65882
-8.55201
-8.43876
-8.31899
-8.19261
-8.05955
-7.91975
-7.77317
-7.61981
-7.45968
-7.29282
-7.11926
-6.93905
-6.75224
-6.55894
-6.35927
-6.15337
-5.94142
-5.72364
-5.50024
-5.27147
-5.03757
-4.79884
-4.55558
-4.30813
-4.05683
-3.80205
-3.54417
-3.28358
-3.02069
-2.75591
-2.48961
-2.22219
-1.95401
-1.68551
-1.41714
-1.14929
-0.88234
-0.616651
-0.352559
-0.0903918
0.169565
0.427031
0.681773
0.933565
1.18215
1.42724
1.66862
1.90612
2.13961
2.36893
2.59399
2.81468
3.03092
3.24265
3.44984
3.65248
3.8506
4.04422
4.23345
4.41839
4.59916
4.77582
4.94845
5.11717
5.28214
5.44357
5.60166
5.75663
5.90873
6.05816
6.2051
6.3497
6.49207
6.6323
6.77047
6.90669
7.04071
7.17339
7.30023
7.43865
7.51498
-8.36419
-8.36951
-8.3796
-8.39189
-8.40376
-8.41474
-8.42533
-8.43589
-8.44645
-8.45687
-8.46689
-8.47624
-8.48473
-8.49222
-8.49863
-8.50393
-8.50808
-8.51105
-8.51283
-8.5134
-8.51273
-8.51086
-8.50779
-8.50357
-8.49821
-8.49176
-8.48426
-8.47573
-8.46625
-8.45595
-8.44504
-8.43375
-8.42236
-8.41125
-8.40095
-8.39206
-8.38526
-8.3812
-8.38048
-8.38356
-8.3907
-8.40198
-8.41732
-8.43656
-8.45946
-8.48577
-8.51526
-8.54769
-8.5828
-8.62032
-8.65999
-8.70155
-8.74475
-8.78932
-8.835
-8.88152
-8.92864
-8.97615
-9.02381
-9.07137
-9.11859
-9.16521
-9.21098
-9.25564
-9.29895
-9.34063
-9.38041
-9.41799
-9.45308
-9.48534
-9.51448
-9.54037
-9.56303
-9.58234
-9.598
-9.60972
-9.61752
-9.62178
-9.6226
-9.61979
-9.61303
-9.60209
-9.58683
-9.56719
-9.54309
-9.5144
-9.4809
-9.44234
-9.39861
-9.34977
-9.29578
-9.23653
-9.17187
-9.10165
-9.02571
-8.94384
-8.85587
-8.76168
-8.66123
-8.55445
-8.44123
-8.32149
-8.19512
-8.06202
-7.92214
-7.77545
-7.62196
-7.46168
-7.29465
-7.1209
-6.94046
-6.75339
-6.55979
-6.35977
-6.1535
-5.94116
-5.72297
-5.49915
-5.26993
-5.03558
-4.79636
-4.55259
-4.30462
-4.05279
-3.79749
-3.53909
-3.27801
-3.01464
-2.7494
-2.48267
-2.21483
-1.94625
-1.6774
-1.40874
-1.14066
-0.873533
-0.607723
-0.343577
-0.0814168
0.178468
0.435802
0.690347
0.9419
1.19021
1.43499
1.67603
1.91318
2.1463
2.37524
2.59988
2.82013
3.0359
3.24713
3.4538
3.65592
3.85348
4.04648
4.23503
4.41929
4.59937
4.77535
4.94731
5.11536
5.27968
5.44048
5.59793
5.75222
5.90361
6.05236
6.19864
6.34263
6.48438
6.62397
6.76145
6.89691
7.0301
7.16192
7.28772
7.42518
7.49996
-8.32335
-8.3296
-8.34184
-8.35645
-8.36973
-8.38159
-8.39316
-8.40484
-8.41656
-8.42822
-8.43954
-8.45017
-8.45979
-8.46823
-8.47549
-8.48163
-8.48665
-8.49051
-8.49314
-8.49449
-8.49453
-8.49323
-8.49057
-8.48655
-8.48117
-8.47444
-8.46639
-8.45712
-8.44674
-8.43542
-8.42338
-8.41094
-8.3985
-8.38658
-8.37578
-8.36673
-8.36006
-8.35638
-8.35613
-8.35967
-8.36716
-8.37866
-8.3941
-8.41336
-8.43627
-8.46264
-8.49225
-8.52488
-8.56026
-8.59815
-8.63832
-8.68053
-8.72451
-8.77
-8.81671
-8.86437
-8.91274
-8.96153
-9.01046
-9.05924
-9.10757
-9.15521
-9.2019
-9.24737
-9.29137
-9.33363
-9.37385
-9.41175
-9.44696
-9.47904
-9.50755
-9.53258
-9.55458
-9.57349
-9.58876
-9.59965
-9.60637
-9.60998
-9.61081
-9.60839
-9.60219
-9.59178
-9.57695
-9.5577
-9.53404
-9.50589
-9.47306
-9.4353
-9.39237
-9.34413
-9.29052
-9.23153
-9.16708
-9.09703
-9.02119
-8.93937
-8.85141
-8.75721
-8.65671
-8.54986
-8.43656
-8.31672
-8.19024
-8.057
-7.91694
-7.77005
-7.61635
-7.45584
-7.28856
-7.11455
-6.93382
-6.74645
-6.5525
-6.35212
-6.14547
-5.93275
-5.71415
-5.48992
-5.26028
-5.0255
-4.78583
-4.54161
-4.29317
-4.04089
-3.78514
-3.52632
-3.26481
-3.00106
-2.73545
-2.46839
-2.20022
-1.93136
-1.66229
-1.39347
-1.12528
-0.858093
-0.592287
-0.328219
-0.0662015
0.193462
0.4505
0.704641
0.955649
1.2033
1.44741
1.68781
1.92433
2.15681
2.38512
2.6091
2.82865
3.04368
3.25415
3.46001
3.66127
3.85795
4.05011
4.23781
4.42119
4.60038
4.77549
4.9466
5.11386
5.27746
5.43763
5.59447
5.74811
5.89882
6.04689
6.19254
6.33593
6.47712
6.61616
6.75307
6.88788
7.02032
7.15134
7.27617
7.41265
7.48652
-8.27813
-8.28564
-8.30056
-8.31793
-8.33264
-8.34498
-8.35715
-8.37009
-8.38341
-8.3966
-8.40932
-8.42129
-8.43223
-8.44181
-8.44994
-8.45689
-8.46281
-8.46763
-8.4712
-8.47342
-8.47421
-8.47349
-8.47122
-8.46734
-8.46184
-8.45474
-8.44606
-8.43592
-8.42446
-8.41191
-8.39858
-8.38491
-8.37137
-8.35854
-8.34705
-8.33753
-8.33055
-8.32663
-8.32615
-8.3294
-8.33654
-8.34761
-8.36262
-8.38148
-8.40407
-8.43024
-8.45979
-8.4925
-8.52814
-8.56646
-8.60721
-8.65015
-8.695
-8.74145
-8.7892
-8.83797
-8.88747
-8.93739
-8.9874
-9.03718
-9.08644
-9.13488
-9.18225
-9.22828
-9.27269
-9.31524
-9.35564
-9.39358
-9.42864
-9.46013
-9.48706
-9.50978
-9.53006
-9.54835
-9.56374
-9.57541
-9.58342
-9.58818
-9.5897
-9.58772
-9.58189
-9.5718
-9.55723
-9.5382
-9.51482
-9.48703