/*--------------------------------*- C++ -*----------------------------------*\
| =========                 |                                                 |
| \\      /  F ield         | OpenFOAM: The Open Source CFD Toolbox           |
|  \\    /   O peration     | Version:  2112                                  |
|   \\  /    A nd           | Website:  www.openfoam.com                      |
|    \\/     M anipulation  |                                                 |
\*---------------------------------------------------------------------------*/
FoamFile
{
    version     2.0;
    format      ascii;
    arch        "LSB;label=32;scalar=64";
    class       surfaceScalarField;
    location    "300";
    object      phi;
}
// * * * * * * * * * * * * * * * * * * * * * * * * * * * * * * * * * * * * * //

dimensions      [0 3 -1 0 0 0 0];

oriented        oriented;

internalField   nonuniform List<scalar> 
24170
(
3.05519e-06
1.33217e-07
2.91539e-06
1.39797e-07
2.78915e-06
1.26237e-07
2.67565e-06
1.135e-07
2.57398e-06
1.01677e-07
2.4843e-06
8.96764e-08
2.40622e-06
7.80834e-08
2.33872e-06
6.74995e-08
2.28039e-06
5.83298e-08
2.22966e-06
5.07214e-08
2.18544e-06
4.4224e-08
2.14696e-06
3.84759e-08
2.1137e-06
3.32604e-08
2.08529e-06
2.84111e-08
2.06159e-06
2.37015e-08
2.04297e-06
1.86254e-08
2.03051e-06
1.24572e-08
1.40108e-10
2.03037e-06
3.47934e-06
7.11271e-08
3.51021e-06
1.08921e-07
3.52573e-06
1.10723e-07
3.52878e-06
1.10442e-07
3.52212e-06
1.08335e-07
3.50846e-06
1.03344e-07
3.48997e-06
9.65727e-08
3.46824e-06
8.92212e-08
3.44469e-06
8.18798e-08
3.42057e-06
7.4844e-08
3.39658e-06
6.8215e-08
3.37312e-06
6.19311e-08
3.35048e-06
5.5901e-08
3.32889e-06
5e-08
3.30856e-06
4.40405e-08
3.2897e-06
3.74802e-08
3.27225e-06
2.99128e-08
1.91107e-08
3.25328e-06
3.68138e-06
5.22668e-08
3.69866e-06
9.16416e-08
3.71337e-06
9.60095e-08
3.72591e-06
9.79059e-08
3.73607e-06
9.81681e-08
3.74383e-06
9.55865e-08
3.74933e-06
9.1077e-08
3.75276e-06
8.57873e-08
3.7544e-06
8.02365e-08
3.75459e-06
7.4656e-08
3.75365e-06
6.91549e-08
3.75184e-06
6.37385e-08
3.74938e-06
5.83601e-08
3.74646e-06
5.29237e-08
3.74322e-06
4.72777e-08
3.73969e-06
4.10114e-08
3.73557e-06
3.40306e-08
2.54316e-08
3.72925e-06
3.93612e-06
4.1539e-08
3.94798e-06
7.97812e-08
3.95752e-06
8.64689e-08
3.96608e-06
8.93363e-08
3.97383e-06
9.04187e-08
3.98067e-06
8.87462e-08
3.98664e-06
8.51108e-08
3.99181e-06
8.06145e-08
3.99626e-06
7.57894e-08
4.00006e-06
7.08528e-08
4.00333e-06
6.58882e-08
4.00615e-06
6.09203e-08
4.0086e-06
5.59099e-08
4.01074e-06
5.07828e-08
4.0126e-06
4.54146e-08
4.01405e-06
3.95598e-08
4.01487e-06
3.3213e-08
2.61629e-08
4.01414e-06
4.21496e-06
3.37069e-08
4.22507e-06
6.96663e-08
4.23299e-06
7.8556e-08
4.24011e-06
8.2217e-08
4.24671e-06
8.38111e-08
4.25272e-06
8.27389e-08
4.25813e-06
7.97071e-08
4.263e-06
7.57371e-08
4.26742e-06
7.13689e-08
4.27146e-06
6.68193e-08
4.27517e-06
6.21796e-08
4.2786e-06
5.74838e-08
4.2818e-06
5.27101e-08
4.28478e-06
4.78016e-08
4.28752e-06
4.26732e-08
4.28989e-06
3.71962e-08
4.29169e-06
3.1412e-08
2.53974e-08
4.29245e-06
4.51521e-06
2.75844e-08
4.52422e-06
6.06579e-08
4.53153e-06
7.12424e-08
4.53815e-06
7.55949e-08
4.54437e-06
7.75908e-08
4.5501e-06
7.7014e-08
4.5553e-06
7.44987e-08
4.56006e-06
7.09801e-08
4.56444e-06
6.69928e-08
4.5685e-06
6.27571e-08
4.5723e-06
5.83815e-08
4.57587e-06
5.39098e-08
4.57924e-06
4.93421e-08
4.5824e-06
4.46412e-08
4.58531e-06
3.97629e-08
4.58785e-06
3.46551e-08
4.58987e-06
2.93924e-08
2.41392e-08
4.59113e-06
4.83761e-06
2.26906e-08
4.84566e-06
5.26085e-08
4.85265e-06
6.42598e-08
4.85906e-06
6.91856e-08
4.86515e-06
7.15004e-08
4.87081e-06
7.13494e-08
4.87601e-06
6.92976e-08
4.8808e-06
6.61944e-08
4.88523e-06
6.25592e-08
4.88937e-06
5.86178e-08
4.89326e-06
5.4493e-08
4.89693e-06
5.02412e-08
4.90039e-06
4.58834e-08
4.90362e-06
4.14056e-08
4.90659e-06
3.67981e-08
4.90918e-06
3.20591e-08
4.9113e-06
2.72782e-08
2.26252e-08
4.91281e-06
5.18353e-06
1.87417e-08
5.1907e-06
4.54394e-08
5.1974e-06
5.75597e-08
5.20367e-06
6.29174e-08
5.2097e-06
6.5469e-08
5.21537e-06
6.5672e-08
5.22064e-06
6.40342e-08
5.22552e-06
6.13153e-08
5.23006e-06
5.8014e-08
5.23432e-06
5.43617e-08
5.23832e-06
5.049e-08
5.24209e-06
4.64691e-08
5.24564e-06
4.23381e-08
5.24894e-06
3.81058e-08
5.25195e-06
3.3789e-08
5.25459e-06
2.94172e-08
5.25679e-06
2.50807e-08
2.093e-08
5.25848e-06
5.55454e-06
1.55347e-08
5.56091e-06
3.90771e-08
5.56731e-06
5.11518e-08
5.57345e-06
5.67811e-08
5.57943e-06
5.94905e-08
5.58513e-06
5.99747e-08
5.59046e-06
5.87e-08
5.59544e-06
5.63336e-08
5.60011e-06
5.33479e-08
5.60449e-06
4.99801e-08
5.60861e-06
4.63669e-08
5.61249e-06
4.2591e-08
5.61612e-06
3.87056e-08
5.61949e-06
3.474e-08
5.62255e-06
3.07289e-08
5.62525e-06
2.67196e-08
5.62753e-06
2.27953e-08
1.90818e-08
5.62938e-06
5.9524e-06
1.29114e-08
5.95804e-06
3.34396e-08
5.96413e-06
4.50546e-08
5.97013e-06
5.07831e-08
5.97605e-06
5.35727e-08
5.98176e-06
5.42662e-08
5.98715e-06
5.33041e-08
5.99223e-06
5.12593e-08
5.997e-06
4.85723e-08
6.0015e-06
4.5484e-08
6.00573e-06
4.21346e-08
6.00971e-06
3.86163e-08
6.01342e-06
3.49934e-08
6.01685e-06
3.1311e-08
6.01996e-06
2.76148e-08
6.02272e-06
2.39603e-08
6.0251e-06
2.042e-08
1.70973e-08
6.02708e-06
6.37898e-06
1.07454e-08
6.38397e-06
2.84463e-08
6.38974e-06
3.92815e-08
6.3956e-06
4.49329e-08
6.40144e-06
4.77276e-08
6.40715e-06
4.85602e-08
6.41259e-06
4.78571e-08
6.41775e-06
4.61032e-08
6.42262e-06
4.37001e-08
6.42722e-06
4.08871e-08
6.43155e-06
3.78069e-08
6.4356e-06
3.45575e-08
6.43939e-06
3.12113e-08
6.44287e-06
2.78238e-08
6.44604e-06
2.4447e-08
6.44886e-06
2.11376e-08
6.45133e-06
1.79574e-08
1.49898e-08
6.45343e-06
5.7424e-06
9.18077e-09
5.74617e-06
2.4676e-08
5.7508e-06
3.46551e-08
5.75562e-06
4.01038e-08
5.7605e-06
4.28511e-08
5.76531e-06
4.37517e-08
5.76994e-06
4.32228e-08
5.77436e-06
4.16891e-08
5.77854e-06
3.95149e-08
5.7825e-06
3.69316e-08
5.78622e-06
3.40824e-08
5.78971e-06
3.10679e-08
5.79296e-06
2.79646e-08
5.79595e-06
2.48327e-08
5.79867e-06
2.1727e-08
5.80111e-06
1.8702e-08
5.80325e-06
1.58106e-08
1.31245e-08
5.80512e-06
6.99971e-06
7.63052e-09
7.00361e-06
2.07741e-08
7.0086e-06
2.96603e-08
7.01397e-06
3.4737e-08
7.01947e-06
3.73481e-08
7.02496e-06
3.82673e-08
7.03029e-06
3.78906e-08
7.0354e-06
3.65787e-08
7.04026e-06
3.46512e-08
7.04487e-06
3.23263e-08
7.04921e-06
2.97442e-08
7.05327e-06
2.70055e-08
7.05704e-06
2.4188e-08
7.06052e-06
2.13544e-08
7.06369e-06
1.85586e-08
7.06654e-06
1.58516e-08
7.06908e-06
1.32768e-08
1.08947e-08
7.07131e-06
8.53237e-06
6.10523e-09
8.53634e-06
1.68027e-08
8.54165e-06
2.43532e-08
8.54753e-06
2.88559e-08
8.55366e-06
3.12152e-08
8.55985e-06
3.20814e-08
8.56593e-06
3.18152e-08
8.57179e-06
3.07135e-08
8.5774e-06
2.90436e-08
8.58272e-06
2.70029e-08
8.58774e-06
2.47239e-08
8.59244e-06
2.23034e-08
8.59682e-06
1.98166e-08
8.60085e-06
1.73247e-08
8.60453e-06
1.48786e-08
8.60785e-06
1.25232e-08
8.61084e-06
1.02933e-08
8.23849e-09
8.61349e-06
1.04007e-05
4.60882e-09
1.04047e-05
1.28066e-08
1.04103e-05
1.87909e-08
1.04166e-05
2.24932e-08
1.04234e-05
2.44587e-08
1.04303e-05
2.51794e-08
1.04371e-05
2.49623e-08
1.04438e-05
2.40422e-08
1.04502e-05
2.26306e-08
1.04563e-05
2.08937e-08
1.04621e-05
1.89505e-08
1.04675e-05
1.6888e-08
1.04726e-05
1.47753e-08
1.04772e-05
1.26673e-08
1.04815e-05
1.06093e-08
1.04854e-05
8.63865e-09
1.04889e-05
6.78219e-09
5.07983e-09
1.04921e-05
1.26783e-05
3.13438e-09
1.26823e-05
8.7884e-09
1.26881e-05
1.30059e-08
1.26949e-05
1.56731e-08
1.27023e-05
1.70775e-08
1.27099e-05
1.75417e-08
1.27176e-05
1.7296e-08
1.27251e-05
1.65139e-08
1.27324e-05
1.53482e-08
1.27394e-05
1.39265e-08
1.2746e-05
1.23447e-08
1.27522e-05
1.06754e-08
1.2758e-05
8.975e-09
1.27633e-05
7.28962e-09
1.27683e-05
5.65529e-09
1.27728e-05
4.10149e-09
1.2777e-05
2.64696e-09
1.32382e-09
1.27807e-05
1.54547e-05
1.65512e-09
1.54588e-05
4.68691e-09
1.54648e-05
6.95338e-09
1.54721e-05
8.35834e-09
1.54802e-05
9.02151e-09
1.54886e-05
9.10558e-09
1.54972e-05
8.74565e-09
1.55056e-05
8.04805e-09
1.55139e-05
7.10685e-09
1.55218e-05
6.00335e-09
1.55293e-05
4.80249e-09
1.55365e-05
3.55484e-09
1.55431e-05
2.30064e-09
1.55494e-05
1.07223e-09
1.55551e-05
-1.04903e-10
1.55604e-05
-1.21079e-09
1.55653e-05
-2.23361e-09
-3.14932e-09
1.55698e-05
1.88392e-05
1.07324e-10
1.88435e-05
3.23489e-10
1.88501e-05
4.19401e-10
1.88581e-05
3.4118e-10
1.8867e-05
8.93488e-11
1.88765e-05
-3.25195e-10
1.88861e-05
-8.77159e-10
1.88957e-05
-1.53565e-09
1.8905e-05
-2.26902e-09
1.89141e-05
-3.04813e-09
1.89227e-05
-3.84698e-09
1.89309e-05
-4.64301e-09
1.89387e-05
-5.41687e-09
1.89459e-05
-6.15253e-09
1.89526e-05
-6.83717e-09
1.89589e-05
-7.46067e-09
1.89647e-05
-8.01815e-09
-8.49309e-09
1.897e-05
2.29651e-05
-1.66848e-09
2.29702e-05
-4.74382e-09
2.29778e-05
-7.17301e-09
2.29871e-05
-8.96757e-09
2.29974e-05
-1.02755e-08
2.30084e-05
-1.12687e-08
2.30196e-05
-1.20492e-08
2.30307e-05
-1.26705e-08
2.30416e-05
-1.3173e-08
2.30521e-05
-1.35885e-08
2.30622e-05
-1.39376e-08
2.30718e-05
-1.423e-08
2.30809e-05
-1.4471e-08
2.30894e-05
-1.46628e-08
2.30974e-05
-1.48065e-08
2.31048e-05
-1.4902e-08
2.31117e-05
-1.49512e-08
-1.49449e-08
2.31182e-05
1.68122e-05
-3.14323e-09
1.68163e-05
-8.85991e-09
1.68223e-05
-1.31881e-08
1.68295e-05
-1.61509e-08
1.68373e-05
-1.81197e-08
1.68455e-05
-1.9449e-08
1.68538e-05
-2.0325e-08
1.6862e-05
-2.08581e-08
1.687e-05
-2.11447e-08
1.68776e-05
-2.12638e-08
1.6885e-05
-2.12661e-08
1.68919e-05
-2.11833e-08
1.68985e-05
-2.10356e-08
1.69046e-05
-2.08379e-08
1.69104e-05
-2.05988e-08
1.69159e-05
-2.03242e-08
1.69209e-05
-2.00188e-08
-1.96776e-08
1.69257e-05
1.46361e-05
-4.72055e-09
1.46405e-05
-1.31652e-08
1.46465e-05
-1.92228e-08
1.46534e-05
-2.30659e-08
1.46608e-05
-2.54698e-08
1.46683e-05
-2.6987e-08
1.46758e-05
-2.78511e-08
1.46832e-05
-2.82195e-08
1.46903e-05
-2.82496e-08
1.46971e-05
-2.80606e-08
1.47035e-05
-2.77258e-08
1.47096e-05
-2.72914e-08
1.47154e-05
-2.67903e-08
1.47208e-05
-2.62454e-08
1.47259e-05
-2.56714e-08
1.47306e-05
-2.50769e-08
1.47351e-05
-2.44684e-08
-2.38419e-08
1.47392e-05
1.2742e-05
-6.55773e-09
1.27468e-05
-1.79674e-08
1.27531e-05
-2.55242e-08
1.27599e-05
-2.98963e-08
1.27669e-05
-3.25123e-08
1.2774e-05
-3.40795e-08
1.2781e-05
-3.4819e-08
1.27877e-05
-3.49432e-08
1.27942e-05
-3.46739e-08
1.28003e-05
-3.41613e-08
1.2806e-05
-3.34911e-08
1.28114e-05
-3.27197e-08
1.28165e-05
-3.18892e-08
1.28213e-05
-3.10284e-08
1.28258e-05
-3.01554e-08
1.283e-05
-2.92798e-08
1.2834e-05
-2.84081e-08
-2.75363e-08
1.28377e-05
1.10932e-05
-8.84395e-09
1.10988e-05
-2.35356e-08
1.11055e-05
-3.2196e-08
1.11123e-05
-3.66951e-08
1.11191e-05
-3.93314e-08
1.11258e-05
-4.08216e-08
1.11323e-05
-4.13283e-08
1.11385e-05
-4.11406e-08
1.11444e-05
-4.05414e-08
1.11499e-05
-3.96958e-08
1.11551e-05
-3.86925e-08
1.116e-05
-3.7596e-08
1.11646e-05
-3.6455e-08
1.11688e-05
-3.53031e-08
1.11728e-05
-3.41589e-08
1.11766e-05
-3.30332e-08
1.11801e-05
-3.19302e-08
-3.0844e-08
1.11834e-05
9.65819e-06
-1.18187e-08
9.66478e-06
-3.01271e-08
9.6718e-06
-3.92115e-08
9.67856e-06
-4.34542e-08
9.6852e-06
-4.5979e-08
9.69166e-06
-4.72777e-08
9.69779e-06
-4.74555e-08
9.70355e-06
-4.69091e-08
9.70898e-06
-4.59638e-08
9.71406e-06
-4.47816e-08
9.71882e-06
-4.34493e-08
9.72326e-06
-4.20376e-08
9.72741e-06
-4.06007e-08
9.73128e-06
-3.91748e-08
9.7349e-06
-3.77799e-08
9.73829e-06
-3.64266e-08
9.74148e-06
-3.5118e-08
-3.38443e-08
9.74448e-06
8.40928e-06
-1.57441e-08
8.41717e-06
-3.80229e-08
8.42444e-06
-4.64822e-08
8.43117e-06
-5.01829e-08
8.43773e-06
-5.25339e-08
8.444e-06
-5.35456e-08
8.44986e-06
-5.33244e-08
8.45534e-06
-5.23875e-08
8.46046e-06
-5.10811e-08
8.46523e-06
-4.95532e-08
8.46967e-06
-4.78876e-08
8.47379e-06
-4.616e-08
8.47762e-06
-4.44298e-08
8.48118e-06
-4.27359e-08
8.4845e-06
-4.10986e-08
8.4876e-06
-3.95293e-08
8.49051e-06
-3.80297e-08
-3.65766e-08
8.49325e-06
7.32252e-06
-2.09836e-08
7.33196e-06
-4.74618e-08
7.33958e-06
-5.41033e-08
7.3465e-06
-5.7103e-08
7.35319e-06
-5.92226e-08
7.35949e-06
-5.98423e-08
7.36532e-06
-5.91607e-08
7.37073e-06
-5.77956e-08
7.37575e-06
-5.60966e-08
7.38039e-06
-5.4193e-08
7.38467e-06
-5.21687e-08
7.38861e-06
-5.01026e-08
7.39224e-06
-4.80604e-08
7.39559e-06
-4.60812e-08
7.39868e-06
-4.41895e-08
7.40155e-06
-4.23989e-08
7.40423e-06
-4.07113e-08
-3.9098e-08
7.40675e-06
6.37771e-06
-2.86317e-08
6.38883e-06
-5.85741e-08
6.39758e-06
-6.28622e-08
6.40558e-06
-6.51035e-08
6.41314e-06
-6.67777e-08
6.42007e-06
-6.67689e-08
6.42637e-06
-6.54666e-08
6.43213e-06
-6.35489e-08
6.43737e-06
-6.13453e-08
6.44214e-06
-5.89622e-08
6.44646e-06
-5.6484e-08
6.45035e-06
-5.399e-08
6.45384e-06
-5.1556e-08
6.45697e-06
-4.9213e-08
6.45978e-06
-4.69919e-08
6.46231e-06
-4.49303e-08
6.46461e-06
-4.30119e-08
-4.11906e-08
6.4667e-06
5.56004e-06
-4.32097e-08
5.57491e-06
-7.34443e-08
5.5879e-06
-7.58529e-08
5.59963e-06
-7.6832e-08
5.61002e-06
-7.7169e-08
5.61901e-06
-7.57601e-08
5.62673e-06
-7.3183e-08
5.6333e-06
-7.01249e-08
5.63883e-06
-6.68704e-08
5.64338e-06
-6.35147e-08
5.64703e-06
-6.01352e-08
5.64986e-06
-5.68153e-08
5.65195e-06
-5.36444e-08
5.65338e-06
-5.06447e-08
5.65423e-06
-4.7844e-08
5.65463e-06
-4.53305e-08
5.65469e-06
-4.30737e-08
-4.12456e-08
5.65475e-06
4.87856e-06
-9.41672e-08
4.90909e-06
-1.03966e-07
4.93027e-06
-9.70401e-08
4.94397e-06
-9.05267e-08
4.9515e-06
-8.46999e-08
4.95407e-06
-7.83292e-08
4.95271e-06
-7.18271e-08
4.94822e-06
-6.56388e-08
4.94123e-06
-5.9879e-08
4.93226e-06
-5.45448e-08
4.92175e-06
-4.96263e-08
4.91008e-06
-4.51374e-08
4.89754e-06
-4.11126e-08
4.88453e-06
-3.76357e-08
4.87141e-06
-3.47156e-08
4.85833e-06
-3.22507e-08
4.84542e-06
-3.01698e-08
-2.88963e-08
4.83307e-06
4.10851e-06
4.00454e-06
3.9075e-06
3.81698e-06
3.73228e-06
3.65395e-06
3.58212e-06
3.51648e-06
3.4566e-06
3.40206e-06
3.35243e-06
3.30729e-06
3.26618e-06
3.22854e-06
3.19383e-06
3.16158e-06
3.13141e-06
3.10251e-06
-9.78663e-09
9.78614e-09
-2.6308e-08
1.65204e-08
-4.46004e-08
1.82916e-08
-6.117e-08
1.65687e-08
-7.06424e-08
9.47179e-09
-6.55379e-08
-5.10552e-09
-4.23975e-08
-2.31409e-08
-3.57268e-09
-3.88259e-08
4.65169e-08
-5.009e-08
1.02896e-07
-5.63796e-08
1.60284e-07
-5.7389e-08
2.15034e-07
-5.47501e-08
2.64814e-07
-4.978e-08
3.08251e-07
-4.34381e-08
3.44639e-07
-3.6388e-08
3.73666e-07
-2.90278e-08
3.95223e-07
-2.15566e-08
4.09247e-07
-1.40249e-08
4.1559e-07
-6.34268e-09
4.13925e-07
1.66363e-09
4.04029e-07
9.8956e-09
3.86016e-07
1.80128e-08
3.603e-07
2.57155e-08
3.2754e-07
3.27585e-08
2.88692e-07
3.88473e-08
2.45083e-07
4.36069e-08
1.98479e-07
4.66032e-08
1.51082e-07
4.73938e-08
1.05467e-07
4.56137e-08
6.43523e-08
4.11111e-08
3.01644e-08
3.4186e-08
4.29689e-09
2.58633e-08
-1.34853e-08
1.778e-08
-2.47012e-08
1.12123e-08
-3.10681e-08
6.36491e-09
-3.40921e-08
3.0208e-09
-3.4387e-08
2.9321e-10
-3.1025e-08
-3.36583e-09
-2.18506e-08
-9.17494e-09
-4.8535e-09
-1.70011e-08
2.07782e-08
-2.56311e-08
5.31078e-08
-3.23325e-08
8.72787e-08
-3.41695e-08
1.17924e-07
-3.06467e-08
1.41192e-07
-2.32669e-08
1.55329e-07
-1.41386e-08
1.60568e-07
-5.23745e-09
1.59811e-07
7.54744e-10
1.56543e-07
3.26869e-09
1.54028e-07
2.51346e-09
1.59811e-07
-5.78282e-09
1.73382e-07
-1.35738e-08
1.74176e-07
-7.91876e-10
1.48874e-07
2.52978e-08
8.81462e-08
6.07309e-08
-1.54567e-08
1.03599e-07
-1.58282e-07
1.42828e-07
-3.27096e-07
1.68811e-07
-5.11559e-07
1.84466e-07
-7.0277e-07
1.91209e-07
-8.93108e-07
1.9034e-07
-1.07644e-06
1.83327e-07
-1.24844e-06
1.72005e-07
-1.40668e-06
1.58244e-07
-1.55018e-06
1.435e-07
-1.67906e-06
1.28875e-07
-1.79414e-06
1.15079e-07
-1.89664e-06
1.02508e-07
-1.98799e-06
9.13496e-08
-2.06962e-06
8.1625e-08
-2.14287e-06
7.32557e-08
-2.20898e-06
6.61047e-08
-2.26898e-06
6.00118e-08
-2.3238e-06
5.48105e-08
-2.37414e-06
5.03505e-08
-2.42064e-06
4.64967e-08
-2.46378e-06
4.31359e-08
-2.50395e-06
4.0172e-08
-2.54147e-06
3.75253e-08
-2.5766e-06
3.51305e-08
-2.60953e-06
3.29366e-08
-2.64043e-06
3.09007e-08
-2.66942e-06
2.89899e-08
-2.69659e-06
2.71753e-08
-2.72202e-06
2.54358e-08
-2.74577e-06
2.37516e-08
-2.76787e-06
2.21084e-08
-2.78835e-06
2.04918e-08
-2.80723e-06
1.889e-08
-2.8245e-06
1.72929e-08
-2.84017e-06
1.56878e-08
-2.85422e-06
1.40664e-08
-2.86662e-06
1.24179e-08
-2.87734e-06
1.0731e-08
-2.88631e-06
8.98844e-09
-2.89347e-06
7.17283e-09
-2.89872e-06
5.26833e-09
-2.90199e-06
3.27843e-09
-2.90325e-06
1.27338e-09
-2.90266e-06
-5.80619e-10
-2.90043e-06
-2.22301e-09
-2.89666e-06
-3.75795e-09
-2.89139e-06
-5.26798e-09
-2.88461e-06
-6.78325e-09
-2.8763e-06
-8.30825e-09
-2.86645e-06
-9.84619e-09
-2.85506e-06
-1.13943e-08
-2.8421e-06
-1.2953e-08
-2.82757e-06
-1.45186e-08
-2.81147e-06
-1.60905e-08
-2.79379e-06
-1.76651e-08
-2.77453e-06
-1.92405e-08
-2.7537e-06
-2.08135e-08
-2.7313e-06
-2.23806e-08
-2.70733e-06
-2.39393e-08
-2.68182e-06
-2.54849e-08
-2.65477e-06
-2.70161e-08
-2.62622e-06
-2.8526e-08
-2.59618e-06
-3.00123e-08
-2.56468e-06
-3.14638e-08
-2.53177e-06
-3.28773e-08
-2.49747e-06
-3.4247e-08
-2.46181e-06
-3.56003e-08
-2.42486e-06
-3.68825e-08
-2.3867e-06
-3.80957e-08
-2.3474e-06
-3.92392e-08
-2.30697e-06
-4.03874e-08
-2.26535e-06
-4.15612e-08
-2.22265e-06
-4.26726e-08
-2.17891e-06
-4.36983e-08
-2.13422e-06
-4.46686e-08
-2.08863e-06
-4.55684e-08
-2.04222e-06
-4.64176e-08
-1.99503e-06
-4.71875e-08
-1.94716e-06
-4.78994e-08
-1.89866e-06
-4.85336e-08
-1.84961e-06
-4.91109e-08
-1.80007e-06
-4.96132e-08
-1.75012e-06
-5.00579e-08
-1.69982e-06
-5.04306e-08
-1.64924e-06
-5.07317e-08
-1.5984e-06
-5.09718e-08
-1.54739e-06
-5.11348e-08
-1.49627e-06
-5.1233e-08
-1.44511e-06
-5.12681e-08
-1.39397e-06
-5.12405e-08
-1.34291e-06
-5.11514e-08
-1.29199e-06
-5.10049e-08
-1.24127e-06
-5.08004e-08
-1.1908e-06
-5.05408e-08
-1.14064e-06
-5.02319e-08
-1.09083e-06
-4.98701e-08
-1.04142e-06
-4.94653e-08
-9.92452e-07
-4.90178e-08
-9.43958e-07
-4.85359e-08
-8.95974e-07
-4.80214e-08
-8.48523e-07
-4.74797e-08
-8.01626e-07
-4.69197e-08
-7.55295e-07
-4.6344e-08
-7.0954e-07
-4.5763e-08
-6.6436e-07
-4.51778e-08
-6.1975e-07
-4.46022e-08
-5.75697e-07
-4.40351e-08
-5.32186e-07
-4.3488e-08
-4.89193e-07
-4.29585e-08
-4.4669e-07
-4.24664e-08
-4.04635e-07
-4.20059e-08
-3.62997e-07
-4.15878e-08
-3.2172e-07
-4.12121e-08
-2.8076e-07
-4.08987e-08
-2.40071e-07
-4.06104e-08
-1.99657e-07
-4.03408e-08
-1.59448e-07
-4.01176e-08
-1.19476e-07
-3.98873e-08
-7.99336e-08
-3.94348e-08
-4.12574e-08
-3.85778e-08
-4.00084e-09
-3.71324e-08
2.98137e-08
-3.37215e-08
6.18781e-08
-3.19699e-08
-1.13846e-08
7.32852e-08
-3.92219e-09
1.37075e-08
-1.13261e-08
2.39226e-08
-1.61398e-08
2.3104e-08
-1.11459e-08
1.1573e-08
1.03947e-08
-1.207e-08
4.83482e-08
-4.30601e-08
9.87544e-08
-7.35475e-08
1.56015e-07
-9.60871e-08
2.14155e-07
-1.0823e-07
2.68819e-07
-1.11044e-07
3.18269e-07
-1.06839e-07
3.6167e-07
-9.81517e-08
3.9887e-07
-8.69804e-08
4.30084e-07
-7.46523e-08
4.55664e-07
-6.19684e-08
4.76004e-07
-4.93679e-08
4.91497e-07
-3.70502e-08
5.02557e-07
-2.50852e-08
5.09675e-07
-1.34605e-08
5.13452e-07
-2.11394e-09
5.14215e-07
9.13197e-09
5.11732e-07
2.04947e-08
5.05436e-07
3.20113e-08
4.94612e-07
4.35817e-08
4.78515e-07
5.49433e-08
4.56472e-07
6.56486e-08
4.28029e-07
7.50456e-08
3.93112e-07
8.23096e-08
3.52165e-07
8.65593e-08
3.06227e-07
8.70475e-08
2.57012e-07
8.33989e-08
2.07047e-07
7.58256e-08
1.59723e-07
6.51022e-08
1.18765e-07
5.21664e-08
8.72392e-08
3.78891e-08
6.72674e-08
2.29871e-08
5.99998e-08
7.5588e-09
6.48734e-08
-8.24481e-09
8.028e-08
-2.45824e-08
1.04278e-07
-4.10025e-08
1.33296e-07
-5.46492e-08
1.61881e-07
-6.0919e-08
1.85123e-07
-5.74115e-08
1.99788e-07
-4.53129e-08
2.05263e-07
-2.87415e-08
2.02221e-07
-1.10977e-08
1.91907e-07
5.07686e-09
1.78727e-07
1.39335e-08
1.61056e-07
2.09421e-08
1.23304e-07
4.02633e-08
4.56223e-08
7.19014e-08
-8.74834e-08
1.19531e-07
-2.65336e-07
1.77062e-07
-4.68977e-07
2.28939e-07
-6.82391e-07
2.74145e-07
-8.92211e-07
3.13419e-07
-1.09167e-06
3.4229e-07
-1.279e-06
3.56137e-07
-1.4503e-06
3.55771e-07
-1.6029e-06
3.43806e-07
-1.73591e-06
3.23351e-07
-1.85014e-06
2.97553e-07
-1.94744e-06
2.69303e-07
-2.03016e-06
2.40965e-07
-2.10082e-06
2.14165e-07
-2.16178e-06
1.89831e-07
-2.21505e-06
1.68354e-07
-2.26231e-06
1.49762e-07
-2.30482e-06
1.33869e-07
-2.34358e-06
1.20379e-07
-2.37927e-06
1.08951e-07
-2.41242e-06
9.92493e-08
-2.44337e-06
9.09705e-08
-2.47241e-06
8.38463e-08
-2.49971e-06
7.76525e-08
-2.52542e-06
7.22066e-08
-2.54964e-06
6.73563e-08
-2.57244e-06
6.29777e-08
-2.59389e-06
5.89736e-08
-2.61403e-06
5.52656e-08
-2.63288e-06
5.17918e-08
-2.65048e-06
4.85014e-08
-2.66684e-06
4.53543e-08
-2.68198e-06
4.23171e-08
-2.6959e-06
3.93633e-08
-2.70862e-06
3.64704e-08
-2.72012e-06
3.36206e-08
-2.73042e-06
3.07977e-08
-2.73951e-06
2.79895e-08
-2.74739e-06
2.51825e-08
-2.75405e-06
2.23668e-08
-2.75951e-06
1.95327e-08
-2.76375e-06
1.6672e-08
-2.76679e-06
1.378e-08
-2.76865e-06
1.08571e-08
-2.76938e-06
7.91462e-09
-2.76907e-06
4.97026e-09
-2.76783e-06
2.04663e-09
-2.76571e-06
-8.39819e-10
-2.76256e-06
-3.71461e-09
-2.75816e-06
-6.62012e-09
-2.75236e-06
-9.5561e-09
-2.74511e-06
-1.25148e-08
-2.7364e-06
-1.54995e-08
-2.7262e-06
-1.85101e-08
-2.7145e-06
-2.15456e-08
-2.70129e-06
-2.4603e-08
-2.68656e-06
-2.76795e-08
-2.6703e-06
-3.07703e-08
-2.65251e-06
-3.38719e-08
-2.63319e-06
-3.69786e-08
-2.61233e-06
-4.00856e-08
-2.58994e-06
-4.31863e-08
-2.56603e-06
-4.62752e-08
-2.5406e-06
-4.93446e-08
-2.51368e-06
-5.23887e-08
-2.48527e-06
-5.54003e-08
-2.45541e-06
-5.83726e-08
-2.4241e-06
-6.1296e-08
-2.39138e-06
-6.41604e-08
-2.35727e-06
-6.69568e-08
-2.3218e-06
-6.9681e-08
-2.28502e-06
-7.23349e-08
-2.24696e-06
-7.48968e-08
-2.20765e-06
-7.73592e-08
-2.16712e-06
-7.97249e-08
-2.12544e-06
-8.20263e-08
-2.08271e-06
-8.42637e-08
-2.03897e-06
-8.63867e-08
-1.99426e-06
-8.83798e-08
-1.94866e-06
-9.02535e-08
-1.90222e-06
-9.2002e-08
-1.855e-06
-9.3627e-08
-1.80708e-06
-9.51161e-08
-1.75852e-06
-9.64724e-08
-1.70939e-06
-9.76903e-08
-1.65976e-06
-9.87771e-08
-1.60971e-06
-9.97293e-08
-1.55929e-06
-1.00551e-07
-1.50858e-06
-1.0124e-07
-1.45761e-06
-1.01788e-07
-1.40647e-06
-1.02208e-07
-1.35519e-06
-1.0249e-07
-1.30386e-06
-1.02642e-07
-1.25253e-06
-1.0267e-07
-1.20126e-06
-1.02575e-07
-1.15011e-06
-1.02358e-07
-1.09914e-06
-1.02028e-07
-1.04841e-06
-1.01585e-07
-9.97958e-07
-1.01035e-07
-9.47846e-07
-1.00386e-07
-8.98115e-07
-9.96394e-08
-8.48809e-07
-9.88061e-08
-7.99964e-07
-9.78923e-08
-7.51616e-07
-9.69106e-08
-7.0379e-07
-9.58669e-08
-6.56514e-07
-9.47735e-08
-6.098e-07
-9.36425e-08
-5.63662e-07
-9.24891e-08
-5.18101e-07
-9.13225e-08
-4.73117e-07
-9.01579e-08
-4.28699e-07
-8.90057e-08
-3.84836e-07
-8.78836e-08
-3.41503e-07
-8.67946e-08
-2.98679e-07
-8.57564e-08
-2.56327e-07
-8.4781e-08
-2.14409e-07
-8.38868e-08
-1.7288e-07
-8.30682e-08
-1.31692e-07
-8.23519e-08
-9.07905e-08
-8.1741e-08
-5.01298e-08
-8.12126e-08
-9.68866e-09
-8.07142e-08
3.04485e-08
-8.01876e-08
7.0162e-08
-7.95262e-08
1.09454e-07
-7.86538e-08
1.48263e-07
-7.73066e-08
1.8631e-07
-7.51012e-08
2.23715e-07
-7.10508e-08
2.57296e-07
-6.54878e-08
-4.48015e-08
2.90746e-07
1.10452e-09
1.26023e-08
4.61046e-09
2.04152e-08
1.72829e-08
1.04303e-08
4.8875e-08
-2.00201e-08
1.00386e-07
-6.35815e-08
1.63174e-07
-1.05849e-07
2.25719e-07
-1.36093e-07
2.80957e-07
-1.51326e-07
3.26473e-07
-1.53746e-07
3.62717e-07
-1.47288e-07
3.91388e-07
-1.3551e-07
4.14209e-07
-1.20974e-07
4.32509e-07
-1.0528e-07
4.4719e-07
-8.93336e-08
4.58823e-07
-7.36016e-08
4.67765e-07
-5.83104e-08
4.74261e-07
-4.35457e-08
4.78499e-07
-2.93236e-08
4.80665e-07
-1.56268e-08
4.80969e-07
-2.41823e-09
4.79736e-07
1.03644e-08
4.77368e-07
2.28622e-08
4.74172e-07
3.52069e-08
4.70268e-07
4.74848e-08
4.65519e-07
5.96921e-08
4.59475e-07
7.16918e-08
4.51348e-07
8.31721e-08
4.40055e-07
9.36015e-08
4.24401e-07
1.02212e-07
4.03392e-07
1.08056e-07
3.76652e-07
1.10138e-07
3.44858e-07
1.07618e-07
3.09953e-07
1.00005e-07
2.74883e-07
8.72345e-08
2.43049e-07
6.97223e-08
2.17697e-07
4.83368e-08
2.01052e-07
2.42018e-08
1.94186e-07
-1.38161e-09
1.96089e-07
-2.64858e-08
2.03679e-07
-4.85951e-08
2.09983e-07
-6.09535e-08
2.08727e-07
-5.96644e-08
1.97583e-07
-4.62674e-08
1.7647e-07
-2.42012e-08
1.46983e-07
7.45711e-10
1.08408e-07
2.74764e-08
5.21671e-08
6.13193e-08
-3.5984e-08
1.02085e-07
-1.66563e-07
1.51522e-07
-3.36615e-07
2.10316e-07
-5.35946e-07
2.71233e-07
-7.46049e-07
3.29634e-07
-9.50086e-07
3.81099e-07
-1.1418e-06
4.20654e-07
-1.31482e-06
4.47161e-07
-1.46239e-06
4.60995e-07
-1.58232e-06
4.62213e-07
-1.67779e-06
4.51609e-07
-1.75327e-06
4.31254e-07
-1.8134e-06
4.03938e-07
-1.8626e-06
3.72553e-07
-1.90466e-06
3.39606e-07
-1.94244e-06
3.07081e-07
-1.97783e-06
2.76357e-07
-2.01192e-06
2.48258e-07
-2.04524e-06
2.23147e-07
-2.07795e-06
2.01067e-07
-2.11004e-06
1.81854e-07
-2.14141e-06
1.65236e-07
-2.17192e-06
1.50893e-07
-2.20147e-06
1.38497e-07
-2.22996e-06
1.27739e-07
-2.25733e-06
1.18339e-07
-2.28353e-06
1.10055e-07
-2.30856e-06
1.02683e-07
-2.33241e-06
9.60522e-08
-2.35507e-06
9.00188e-08
-2.37656e-06
8.4465e-08
-2.39688e-06
7.92957e-08
-2.41605e-06
7.44339e-08
-2.43407e-06
6.98165e-08
-2.45096e-06
6.53918e-08
-2.46672e-06
6.11175e-08
-2.48136e-06
5.69587e-08
-2.49488e-06
5.28864e-08
-2.50728e-06
4.88764e-08
-2.51857e-06
4.49088e-08
-2.52873e-06
4.09672e-08
-2.53777e-06
3.70366e-08
-2.54569e-06
3.31055e-08
-2.55247e-06
2.91621e-08
-2.55813e-06
2.51981e-08
-2.56266e-06
2.12073e-08
-2.56606e-06
1.71859e-08
-2.56833e-06
1.31362e-08
-2.56947e-06
9.0644e-09
-2.56948e-06
4.97902e-09
-2.56831e-06
8.82724e-10
-2.56591e-06
-3.23509e-09
-2.56221e-06
-7.40462e-09
-2.55719e-06
-1.16441e-08
-2.5508e-06
-1.59457e-08
-2.54301e-06
-2.03e-08
-2.53381e-06
-2.47016e-08
-2.52318e-06
-2.91468e-08
-2.51109e-06
-3.36307e-08
-2.49755e-06
-3.81487e-08
-2.48253e-06
-4.26949e-08
-2.46603e-06
-4.72635e-08
-2.44805e-06
-5.18474e-08
-2.42858e-06
-5.64394e-08
-2.40763e-06
-6.10313e-08
-2.38519e-06
-6.56143e-08
-2.36127e-06
-7.0179e-08
-2.33589e-06
-7.47152e-08
-2.30905e-06
-7.92132e-08
-2.28077e-06
-8.36623e-08
-2.25108e-06
-8.80522e-08
-2.21999e-06
-9.23697e-08
-2.18753e-06
-9.66017e-08
-2.15373e-06
-1.00735e-07
-2.11862e-06
-1.04764e-07
-2.08224e-06
-1.0868e-07
-2.04463e-06
-1.12473e-07
-2.00583e-06
-1.1613e-07
-1.96588e-06
-1.19648e-07
-1.92484e-06
-1.23035e-07
-1.88279e-06
-1.2629e-07
-1.83978e-06
-1.29376e-07
-1.79586e-06
-1.32282e-07
-1.75109e-06
-1.35009e-07
-1.70554e-06
-1.37553e-07
-1.65925e-06
-1.39906e-07
-1.61231e-06
-1.42063e-07
-1.56478e-06
-1.44017e-07
-1.51672e-06
-1.45768e-07
-1.4682e-06
-1.47318e-07
-1.4193e-06
-1.48669e-07
-1.37008e-06
-1.49823e-07
-1.3206e-06
-1.5078e-07
-1.27091e-06
-1.51535e-07
-1.22107e-06
-1.52095e-07
-1.17114e-06
-1.52462e-07
-1.12119e-06
-1.52635e-07
-1.07127e-06
-1.52627e-07
-1.02144e-06
-1.52436e-07
-9.71753e-07
-1.52071e-07
-9.22271e-07
-1.51535e-07
-8.73042e-07
-1.50837e-07
-8.24114e-07
-1.49982e-07
-7.75535e-07
-1.48984e-07
-7.27345e-07
-1.47845e-07
-6.79585e-07
-1.46581e-07
-6.32287e-07
-1.45203e-07
-5.85481e-07
-1.43727e-07
-5.39192e-07
-1.42166e-07
-4.93438e-07
-1.40535e-07
-4.48232e-07
-1.38855e-07
-4.0358e-07
-1.37146e-07
-3.59482e-07
-1.35425e-07
-3.1593e-07
-1.33711e-07
-2.72914e-07
-1.32024e-07
-2.30412e-07
-1.30385e-07
-1.88402e-07
-1.28805e-07
-1.46851e-07
-1.27306e-07
-1.05723e-07
-1.25909e-07
-6.49709e-08
-1.24636e-07
-2.45468e-08
-1.23492e-07
1.55926e-08
-1.22489e-07
5.54769e-08
-1.21626e-07
9.51689e-08
-1.20903e-07
1.34743e-07
-1.20291e-07
1.74271e-07
-1.19716e-07
2.13798e-07
-1.19057e-07
2.53313e-07
-1.18169e-07
2.92756e-07
-1.16752e-07
3.32023e-07
-1.14365e-07
3.71126e-07
-1.10155e-07
4.0901e-07
-1.03375e-07
-8.48268e-08
4.4902e-07
-4.97736e-10
1.30995e-08
1.03372e-08
9.57914e-09
4.76657e-08
-2.68988e-08
1.11703e-07
-8.40575e-08
1.85206e-07
-1.37085e-07
2.51103e-07
-1.71746e-07
3.01473e-07
-1.86462e-07
3.36345e-07
-1.86198e-07
3.59427e-07
-1.76828e-07
3.74841e-07
-1.62703e-07
3.85713e-07
-1.46382e-07
3.93946e-07
-1.29207e-07
4.00514e-07
-1.11848e-07
4.05826e-07
-9.46466e-08
4.10007e-07
-7.77825e-08
4.13052e-07
-6.13559e-08
4.14931e-07
-4.54246e-08
4.15626e-07
-3.00188e-08
4.15152e-07
-1.51525e-08
4.1356e-07
-8.26952e-10
4.1096e-07
1.29644e-08
4.07552e-07
2.62698e-08
4.03621e-07
3.91369e-08
3.99485e-07
5.16203e-08
3.95429e-07
6.37475e-08
3.91637e-07
7.5483e-08
3.88104e-07
8.67045e-08
3.84536e-07
9.71685e-08
3.80282e-07
1.06466e-07
3.74393e-07
1.13943e-07
3.65837e-07
1.18693e-07
3.53817e-07
1.19637e-07
3.38134e-07
1.15688e-07
3.19415e-07
1.05951e-07
2.99107e-07
9.00293e-08
2.79224e-07
6.82178e-08
2.61803e-07
4.16218e-08
2.47738e-07
1.26806e-08
2.34936e-07
-1.36849e-08
2.17169e-07
-3.08298e-08
1.88797e-07
-3.25816e-08
1.4792e-07
-1.87891e-08
9.44559e-08
7.19697e-09
2.5804e-08
4.44499e-08
-6.50489e-08
9.15991e-08
-1.8419e-07
1.46617e-07
-3.31596e-07
2.08727e-07
-5.04319e-07
2.74808e-07
-6.93329e-07
3.40532e-07
-8.84479e-07
4.01466e-07
-1.0667e-06
4.53454e-07
-1.23028e-06
4.93212e-07
-1.36845e-06
5.19273e-07
-1.47992e-06
5.32122e-07
-1.56601e-06
5.33253e-07
-1.62915e-06
5.24129e-07
-1.67364e-06
5.06705e-07
-1.70481e-06
4.82778e-07
-1.72786e-06
4.54303e-07
-1.74706e-06
4.23141e-07
-1.76546e-06
3.9095e-07
-1.78492e-06
3.59062e-07
-1.80632e-06
3.28483e-07
-1.82985e-06
2.99891e-07
-1.85527e-06
2.73678e-07
-1.88213e-06
2.50001e-07
-1.9099e-06
2.28843e-07
-1.93812e-06
2.10072e-07
-1.96637e-06
1.93483e-07
-1.99431e-06
1.78838e-07
-2.0217e-06
1.65886e-07
-2.04835e-06
1.54385e-07
-2.07412e-06
1.44113e-07
-2.09893e-06
1.34869e-07
-2.12273e-06
1.2648e-07
-2.14547e-06
1.18795e-07
-2.16714e-06
1.11689e-07
-2.18773e-06
1.05053e-07
-2.20723e-06
9.87988e-08
-2.22565e-06
9.28539e-08
-2.24299e-06
8.71565e-08
-2.25925e-06
8.16554e-08
-2.27444e-06
7.63077e-08
-2.28856e-06
7.10775e-08
-2.3016e-06
6.59343e-08
-2.31358e-06
6.08525e-08
-2.32448e-06
5.58107e-08
-2.3343e-06
5.07905e-08
-2.34303e-06
4.5777e-08
-2.35068e-06
4.07555e-08
-2.35722e-06
3.5716e-08
-2.36267e-06
3.0648e-08
-2.367e-06
2.55444e-08
-2.37021e-06
2.04003e-08
-2.37229e-06
1.5214e-08
-2.3732e-06
9.98542e-09
-2.37293e-06
4.71391e-09
-2.37144e-06
-6.06478e-10
-2.36869e-06
-5.98886e-09
-2.36464e-06
-1.14506e-08
-2.35928e-06
-1.69991e-08
-2.3526e-06
-2.2629e-08
-2.34457e-06
-2.83326e-08
-2.33517e-06
-3.41024e-08
-2.32439e-06
-3.99324e-08
-2.31221e-06
-4.58152e-08
-2.29861e-06
-5.17443e-08
-2.28359e-06
-5.77113e-08
-2.26714e-06
-6.37085e-08
-2.24926e-06
-6.97261e-08