/*--------------------------------*- C++ -*----------------------------------*\
| =========                 |                                                 |
| \\      /  F ield         | OpenFOAM: The Open Source CFD Toolbox           |
|  \\    /   O peration     | Version:  2112                                  |
|   \\  /    A nd           | Website:  www.openfoam.com                      |
|    \\/     M anipulation  |                                                 |
\*---------------------------------------------------------------------------*/
FoamFile
{
    version     2.0;
    format      ascii;
    arch        "LSB;label=32;scalar=64";
    class       volVectorField;
    location    "300";
    object      U;
}
// * * * * * * * * * * * * * * * * * * * * * * * * * * * * * * * * * * * * * //

dimensions      [0 1 -1 0 0 0 0];

internalField   nonuniform List<vector> 
12225
(
(9.76705 0.0419511 0)
(9.35292 0.0763907 0)
(8.94824 0.0834214 0)
(8.56677 0.0806986 0)
(8.22496 0.0745085 0)
(7.92505 0.0665625 0)
(7.66305 0.0580823 0)
(7.43544 0.0497409 0)
(7.23902 0.0421356 0)
(7.06893 0.0357122 0)
(6.92026 0.0303284 0)
(6.7911 0.0257252 0)
(6.67864 0.021614 0)
(6.58219 0.0178534 0)
(6.5003 0.0141801 0)
(6.43312 0.0101669 0)
(6.38381 0.00572903 0)
(6.34706 -0.00529221 0)
(10.0937 0.0572083 0)
(10.2349 0.0912202 0)
(10.3101 0.0909946 0)
(10.3317 0.08734 0)
(10.3221 0.0845189 0)
(10.291 0.0811269 0)
(10.2434 0.077015 0)
(10.1837 0.0726505 0)
(10.1164 0.068285 0)
(10.0458 0.064066 0)
(9.97516 0.0601248 0)
(9.90534 0.0562994 0)
(9.83787 0.0524632 0)
(9.7728 0.0484364 0)
(9.7115 0.0440413 0)
(9.65347 0.0386714 0)
(9.60099 0.0315248 0)
(9.5463 0.0190292 0)
(10.0131 0.0409628 0)
(10.0731 0.0634661 0)
(10.1226 0.0661667 0)
(10.1586 0.0703052 0)
(10.1878 0.0743474 0)
(10.2125 0.0761197 0)
(10.2309 0.0758921 0)
(10.2431 0.0745562 0)
(10.2497 0.0726154 0)
(10.252 0.0703581 0)
(10.2508 0.0678045 0)
(10.247 0.0649602 0)
(10.241 0.061792 0)
(10.2336 0.058224 0)
(10.2251 0.0540632 0)
(10.2156 0.0486986 0)
(10.2056 0.0417095 0)
(10.1913 0.0304811 0)
(10.0068 0.0294777 0)
(10.0402 0.0542126 0)
(10.0715 0.0609921 0)
(10.0942 0.0660317 0)
(10.1137 0.0696313 0)
(10.1322 0.0709759 0)
(10.1488 0.0706737 0)
(10.1631 0.0695547 0)
(10.1752 0.0679993 0)
(10.1857 0.0661382 0)
(10.1946 0.0640028 0)
(10.2024 0.0616088 0)
(10.209 0.0589 0)
(10.2148 0.0557653 0)
(10.2199 0.051998 0)
(10.2242 0.0471531 0)
(10.2272 0.0410033 0)
(10.2278 0.0328447 0)
(10.0048 0.023623 0)
(10.0285 0.048562 0)
(10.0532 0.0564211 0)
(10.0709 0.0611834 0)
(10.0864 0.0646147 0)
(10.1012 0.0661729 0)
(10.115 0.0662405 0)
(10.1272 0.065471 0)
(10.1382 0.0642142 0)
(10.1482 0.0626006 0)
(10.1574 0.060686 0)
(10.1659 0.0584728 0)
(10.1738 0.0559052 0)
(10.1811 0.0528765 0)
(10.1879 0.0492261 0)
(10.194 0.0446812 0)
(10.1991 0.0391758 0)
(10.2025 0.0326541 0)
(10.0034 0.0192932 0)
(10.0216 0.0427121 0)
(10.0423 0.0513207 0)
(10.0579 0.0562896 0)
(10.0715 0.0599279 0)
(10.0846 0.0617845 0)
(10.0969 0.0621351 0)
(10.1079 0.0615864 0)
(10.118 0.0605022 0)
(10.1273 0.0590219 0)
(10.136 0.0572062 0)
(10.1442 0.0550588 0)
(10.1519 0.0525418 0)
(10.1591 0.0495706 0)
(10.1659 0.0460353 0)
(10.172 0.041783 0)
(10.1771 0.0368261 0)
(10.181 0.031293 0)
(10.0024 0.0158092 0)
(10.0166 0.0370884 0)
(10.0342 0.0463413 0)
(10.0485 0.0516137 0)
(10.0609 0.0553799 0)
(10.0729 0.0574212 0)
(10.0843 0.0579803 0)
(10.0947 0.057615 0)
(10.1042 0.0566791 0)
(10.113 0.0553115 0)
(10.1213 0.0535778 0)
(10.1291 0.0514917 0)
(10.1365 0.0490339 0)
(10.1434 0.0461445 0)
(10.1498 0.0427575 0)
(10.1557 0.0388015 0)
(10.1606 0.0343325 0)
(10.1645 0.0295366 0)
(10.0017 0.0130086 0)
(10.0128 0.0320438 0)
(10.0278 0.0416108 0)
(10.0409 0.0470775 0)
(10.0524 0.0508664 0)
(10.0636 0.0530198 0)
(10.0742 0.0537502 0)
(10.0841 0.0535494 0)
(10.0932 0.0527486 0)
(10.1016 0.0514861 0)
(10.1096 0.0498331 0)
(10.1171 0.0478143 0)
(10.1241 0.0454283 0)
(10.1308 0.0426408 0)
(10.1369 0.0394232 0)
(10.1424 0.0357592 0)
(10.1471 0.0317268 0)
(10.1509 0.0275117 0)
(10.0012 0.0107602 0)
(10.01 0.0275984 0)
(10.0226 0.037106 0)
(10.0345 0.0426379 0)
(10.0453 0.0463874 0)
(10.0557 0.0485976 0)
(10.0657 0.0494602 0)
(10.075 0.0493945 0)
(10.0837 0.0487074 0)
(10.0918 0.0475401 0)
(10.0995 0.0459671 0)
(10.1067 0.0440243 0)
(10.1135 0.041725 0)
(10.1198 0.0390601 0)
(10.1256 0.0360292 0)
(10.1308 0.0326517 0)
(10.1353 0.0290111 0)
(10.1391 0.0252722 0)
(10.0009 0.00894064 0)
(10.0078 0.0236782 0)
(10.0185 0.0328162 0)
(10.0292 0.038294 0)
(10.0393 0.0419541 0)
(10.0489 0.0441704 0)
(10.0583 0.0451226 0)
(10.0671 0.0451601 0)
(10.0754 0.0445654 0)
(10.0832 0.0434829 0)
(10.0905 0.0419897 0)
(10.0974 0.040131 0)
(10.1039 0.0379327 0)
(10.1099 0.035407 0)
(10.1154 0.0325734 0)
(10.1204 0.029472 0)
(10.1247 0.0261829 0)
(10.1284 0.0228464 0)
(10.0007 0.00745021 0)
(10.0062 0.0202227 0)
(10.0151 0.0287606 0)
(10.0248 0.0340628 0)
(10.0341 0.0375782 0)
(10.0431 0.0397456 0)
(10.0518 0.0407426 0)
(10.0602 0.0408547 0)
(10.0681 0.0403359 0)
(10.0755 0.03933 0)
(10.0825 0.0379173 0)
(10.0891 0.0361498 0)
(10.0952 0.0340646 0)
(10.1009 0.0316894 0)
(10.1061 0.0290573 0)
(10.1109 0.0262182 0)
(10.115 0.0232445 0)
(10.1187 0.0202539 0)
(10.0005 0.00627852 0)
(10.005 0.0173841 0)
(10.0127 0.0252372 0)
(10.0214 0.0302788 0)
(10.03 0.0336152 0)
(10.0384 0.0356941 0)
(10.0466 0.0366929 0)
(10.0546 0.0368478 0)
(10.0621 0.0363842 0)
(10.0692 0.0354424 0)
(10.0758 0.0341044 0)
(10.0821 0.032427 0)
(10.088 0.0304548 0)
(10.0935 0.0282252 0)
(10.0984 0.025779 0)
(10.1029 0.0231688 0)
(10.1069 0.0204585 0)
(10.1105 0.0177484 0)
(10.0004 0.0052786 0)
(10.0042 0.0148345 0)
(10.0107 0.0219099 0)
(10.0185 0.0266072 0)
(10.0265 0.0297282 0)
(10.0343 0.0316845 0)
(10.0421 0.0326521 0)
(10.0496 0.032828 0)
(10.0567 0.032408 0)
(10.0635 0.0315254 0)
(10.0699 0.0302628 0)
(10.0759 0.0286797 0)
(10.0815 0.0268256 0)
(10.0867 0.0247439 0)
(10.0914 0.0224795 0)
(10.0958 0.0200846 0)
(10.0996 0.0176146 0)
(10.103 0.0151571 0)
(10.0004 0.00431505 0)
(10.0034 0.0122471 0)
(10.009 0.0183615 0)
(10.0158 0.0225647 0)
(10.0231 0.0253754 0)
(10.0303 0.0271393 0)
(10.0375 0.0280254 0)
(10.0445 0.028193 0)
(10.0513 0.0278041 0)
(10.0577 0.0269798 0)
(10.0638 0.0258011 0)
(10.0695 0.0243284 0)
(10.0748 0.022613 0)
(10.0797 0.0207016 0)
(10.0843 0.0186398 0)
(10.0884 0.016477 0)
(10.0921 0.0142598 0)
(10.0954 0.0120628 0)
(10.0003 0.00337286 0)
(10.0028 0.0096356 0)
(10.0074 0.0146278 0)
(10.0134 0.0181716 0)
(10.0199 0.020557 0)
(10.0265 0.0220441 0)
(10.0331 0.022783 0)
(10.0397 0.0228989 0)
(10.046 0.0225185 0)
(10.052 0.0217454 0)
(10.0577 0.0206551 0)
(10.0631 0.0193058 0)
(10.0681 0.0177475 0)
(10.0728 0.0160262 0)
(10.0771 0.0141854 0)
(10.081 0.0122685 0)
(10.0846 0.0103139 0)
(10.0878 0.00838367 0)
(10.0002 0.00244347 0)
(10.0023 0.00701108 0)
(10.0061 0.0107416 0)
(10.0113 0.0134534 0)
(10.017 0.0152799 0)
(10.023 0.0163899 0)
(10.0291 0.0169008 0)
(10.0351 0.0169061 0)
(10.041 0.0164982 0)
(10.0466 0.0157592 0)
(10.052 0.0147535 0)
(10.057 0.0135332 0)
(10.0618 0.0121434 0)
(10.0662 0.0106251 0)
(10.0703 0.0090165 0)
(10.074 0.00735404 0)
(10.0774 0.00566741 0)
(10.0806 0.00400778 0)
(10.0002 0.00151536 0)
(10.0019 0.0043568 0)
(10.0051 0.00670311 0)
(10.0096 0.00841516 0)
(10.0147 0.0095374 0)
(10.0201 0.0101573 0)
(10.0256 0.0103488 0)
(10.0312 0.0101731 0)
(10.0366 0.00969054 0)
(10.0418 0.00895799 0)
(10.0469 0.00802376 0)
(10.0516 0.00692872 0)
(10.0561 0.0057089 0)
(10.0603 0.00439734 0)
(10.0641 0.00302407 0)
(10.0677 0.00161726 0)
(10.071 0.000198351 0)
(10.0741 -0.00119165 0)
(10.0002 0.000559442 0)
(10.0016 0.0016006 0)
(10.0045 0.00243452 0)
(10.0085 0.00298345 0)
(10.0131 0.00324902 0)
(10.018 0.00325352 0)
(10.0231 0.00302384 0)
(10.0282 0.00258689 0)
(10.0333 0.00197159 0)
(10.0382 0.00120713 0)
(10.0429 0.000320754 0)
(10.0474 -0.000662551 0)
(10.0516 -0.00171957 0)
(10.0556 -0.00282851 0)
(10.0593 -0.00396926 0)
(10.0627 -0.00512295 0)
(10.0659 -0.00627589 0)
(10.0689 -0.00739689 0)
(10.0002 -0.000493565 0)
(10.0016 -0.00143703 0)
(10.0043 -0.00228752 0)
(10.008 -0.00305886 0)
(10.0124 -0.00378363 0)
(10.0171 -0.00450349 0)
(10.022 -0.00524184 0)
(10.0269 -0.0060083 0)
(10.0317 -0.00680731 0)
(10.0364 -0.00764025 0)
(10.0409 -0.00850492 0)
(10.0452 -0.00939579 0)
(10.0492 -0.0103054 0)
(10.0531 -0.0112252 0)
(10.0566 -0.0121465 0)
(10.06 -0.0130601 0)
(10.0631 -0.0139598 0)
(10.066 -0.0148244 0)
(10.0002 -0.00152467 0)
(10.0017 -0.00439989 0)
(10.0047 -0.00685031 0)
(10.0088 -0.00883379 0)
(10.0134 -0.0104453 0)
(10.0182 -0.0118055 0)
(10.0231 -0.0129866 0)
(10.028 -0.0140321 0)
(10.0329 -0.0149798 0)
(10.0375 -0.0158618 0)
(10.042 -0.0166998 0)
(10.0462 -0.0175062 0)
(10.0503 -0.0182879 0)
(10.0541 -0.0190485 0)
(10.0576 -0.0197885 0)
(10.061 -0.0205068 0)
(10.0641 -0.0212028 0)
(10.067 -0.0218629 0)
(10.0002 -0.00249128 0)
(10.0021 -0.00712981 0)
(10.0056 -0.0109273 0)
(10.0103 -0.0138298 0)
(10.0153 -0.0160716 0)
(10.0204 -0.0178731 0)
(10.0256 -0.0193428 0)
(10.0307 -0.0205501 0)
(10.0356 -0.0215646 0)
(10.0404 -0.0224461 0)
(10.0449 -0.0232342 0)
(10.0492 -0.0239545 0)
(10.0533 -0.024624 0)
(10.0571 -0.0252548 0)
(10.0607 -0.0258539 0)
(10.064 -0.0264248 0)
(10.0672 -0.02697 0)
(10.0701 -0.0274798 0)
(10.0003 -0.00356757 0)
(10.0028 -0.0100679 0)
(10.0072 -0.015098 0)
(10.0126 -0.0187104 0)
(10.0182 -0.0214083 0)
(10.0238 -0.0235218 0)
(10.0293 -0.0251726 0)
(10.0347 -0.0264545 0)
(10.0399 -0.0274736 0)
(10.0448 -0.0283137 0)
(10.0495 -0.0290271 0)
(10.0539 -0.0296484 0)
(10.058 -0.0302036 0)
(10.0619 -0.0307114 0)
(10.0655 -0.031184 0)
(10.0689 -0.0316278 0)
(10.0721 -0.032047 0)
(10.0751 -0.0324341 0)
(10.0004 -0.00485905 0)
(10.0038 -0.0134062 0)
(10.0096 -0.0194975 0)
(10.016 -0.0235772 0)
(10.0223 -0.0265759 0)
(10.0284 -0.0288896 0)
(10.0344 -0.0306166 0)
(10.0401 -0.031888 0)
(10.0456 -0.0328539 0)
(10.0507 -0.033616 0)
(10.0556 -0.0342317 0)
(10.0601 -0.0347419 0)
(10.0644 -0.0351795 0)
(10.0683 -0.0355688 0)
(10.0721 -0.0359251 0)
(10.0756 -0.0362568 0)
(10.0789 -0.0365684 0)
(10.0819 -0.0368525 0)
(10.0006 -0.00649906 0)
(10.0055 -0.0173506 0)
(10.013 -0.0241808 0)
(10.0207 -0.028429 0)
(10.0277 -0.0315917 0)
(10.0344 -0.0340172 0)
(10.0409 -0.0357365 0)
(10.0471 -0.0369328 0)
(10.0529 -0.0378023 0)
(10.0584 -0.0384569 0)
(10.0634 -0.0389545 0)
(10.0682 -0.0393418 0)
(10.0727 -0.0396578 0)
(10.0768 -0.0399315 0)
(10.0807 -0.0401804 0)
(10.0843 -0.0404145 0)
(10.0877 -0.0406376 0)
(10.0909 -0.0408413 0)
(10.001 -0.00864922 0)
(10.008 -0.0221059 0)
(10.018 -0.029188 0)
(10.027 -0.0332978 0)
(10.0348 -0.0364799 0)
(10.0422 -0.0389138 0)
(10.0494 -0.0405607 0)
(10.0563 -0.0416573 0)
(10.0626 -0.0424219 0)
(10.0684 -0.0429611 0)
(10.0739 -0.043331 0)
(10.079 -0.0435843 0)
(10.0837 -0.0437668 0)
(10.0881 -0.0439132 0)
(10.0922 -0.0440447 0)
(10.096 -0.0441744 0)
(10.0996 -0.044305 0)
(10.1029 -0.0444208 0)
(10.0016 -0.0115576 0)
(10.0118 -0.027626 0)
(10.0252 -0.0344318 0)
(10.0358 -0.0383816 0)
(10.0447 -0.0414976 0)
(10.0533 -0.0437489 0)
(10.0617 -0.0451734 0)
(10.0694 -0.0460916 0)
(10.0766 -0.0467167 0)
(10.0831 -0.0471303 0)
(10.0892 -0.0473789 0)
(10.0948 -0.0475162 0)
(10.1 -0.0475906 0)
(10.1048 -0.0476368 0)
(10.1092 -0.0476799 0)
(10.1132 -0.0477398 0)
(10.117 -0.0478206 0)
(10.1205 -0.0478879 0)
(10.0029 -0.0158581 0)
(10.0185 -0.0331722 0)
(10.0367 -0.038973 0)
(10.0504 -0.0431711 0)
(10.0619 -0.0466463 0)
(10.073 -0.0488533 0)
(10.0835 -0.0500284 0)
(10.0931 -0.0506617 0)
(10.1017 -0.051002 0)
(10.1095 -0.0511284 0)
(10.1166 -0.0510946 0)
(10.1231 -0.050963 0)
(10.1289 -0.0507932 0)
(10.1341 -0.0506184 0)
(10.1387 -0.0504585 0)
(10.1429 -0.0503454 0)
(10.1467 -0.0502957 0)
(10.15 -0.0502533 0)
(10.0064 -0.0243283 0)
(10.0374 -0.0409056 0)
(10.0664 -0.0429089 0)
(10.0886 -0.0461253 0)
(10.1074 -0.0500639 0)
(10.1247 -0.0528902 0)
(10.14 -0.0545629 0)
(10.1529 -0.0555644 0)
(10.1638 -0.0561475 0)
(10.1728 -0.0563847 0)
(10.1802 -0.0563495 0)
(10.186 -0.0561201 0)
(10.1904 -0.0557925 0)
(10.1936 -0.0554377 0)
(10.1956 -0.0551033 0)
(10.1967 -0.0548159 0)
(10.1971 -0.0545929 0)
(10.1968 -0.0545505 0)
(10.0488 -0.0370925 0)
(10.1393 -0.0646413 0)
(10.1982 -0.0661733 0)
(10.2316 -0.064522 0)
(10.2511 -0.0636306 0)
(10.2611 -0.0625579 0)
(10.2624 -0.0611572 0)
(10.2561 -0.0596878 0)
(10.2439 -0.0582604 0)
(10.2271 -0.0568357 0)
(10.2068 -0.0554027 0)
(10.1837 -0.0539847 0)
(10.1585 -0.0526409 0)
(10.1318 -0.0513784 0)
(10.1046 -0.0502418 0)
(10.0774 -0.0493738 0)
(10.0504 -0.0487271 0)
(10.0241 -0.0486953 0)
(9.87182 -0.0289455 0)
(9.64719 -0.0556958 0)
(9.41715 -0.0640802 0)
(9.19117 -0.0658041 0)
(8.97923 -0.065229 0)
(8.78497 -0.0629943 0)
(8.60684 -0.0597473 0)
(8.44354 -0.0560172 0)
(8.29417 -0.0521073 0)
(8.15813 -0.0482394 0)
(8.0343 -0.0444684 0)
(7.92176 -0.0408576 0)
(7.81928 -0.0374789 0)
(7.72599 -0.0344614 0)
(7.64007 -0.0319218 0)
(7.56056 -0.0298372 0)
(7.48635 -0.0281159 0)
(7.41743 -0.0270884 0)
(-0.003272 0.00904374 -1.11134e-18)
(-0.0150679 0.0147287 1.15494e-18)
(-0.0312318 0.0157753 0)
(-0.0489351 0.0131333 0)
(-0.0632139 0.00619378 0)
(-0.0652691 -0.00474738 -7.49276e-19)
(-0.0494076 -0.019274 0)
(-0.0201364 -0.0352463 0)
(0.0195067 -0.0481412 0)
(0.0660225 -0.0551252 0)
(0.116462 -0.0568104 4.21248e-19)
(0.166935 -0.0546313 0)
(0.214171 -0.0498589 0)
(0.256246 -0.0434637 0)
(0.292238 -0.036174 0)
(0.321725 -0.0284598 2.12489e-19)
(0.344564 -0.020601 0)
(0.360712 -0.0126946 0)
(0.370123 -0.0046694 0)
(0.372881 0.00371062 0)
(0.367778 0.0124401 0)
(0.355275 0.0211482 0)
(0.335779 0.0292597 0)
(0.309673 0.0361591 2.22969e-19)
(0.277559 0.0412525 -2.42654e-19)
(0.240391 0.0439352 2.70867e-19)
(0.199551 0.0436425 3.11368e-19)
(0.156809 0.0399437 0)
(0.114317 0.0327156 0)
(0.0745203 0.0223974 -5.9537e-19)
(0.040015 0.0104712 -8.11391e-19)
(0.0130653 -6.48684e-05 0)
(-0.00560815 -0.00593148 0)
(-0.0180743 -0.00720468 -1.28467e-18)
(-0.0258327 -0.00583553 0)
(-0.0301658 -0.00378754 0)
(-0.0321105 -0.00282805 1.13781e-18)
(-0.0309952 -0.00404317 0)
(-0.0252798 -0.00749592 1.18715e-18)
(-0.0128448 -0.012947 2.66723e-18)
(0.00700082 -0.0193109 0)
(0.0333999 -0.0245769 0)
(0.0635062 -0.0266909 0)
(0.0931835 -0.0248522 0)
(0.118222 -0.0196786 0)
(0.135892 -0.0127836 8.97867e-19)
(0.145084 -0.00596827 8.76624e-19)
(0.146975 -0.00114374 8.79818e-19)
(0.144477 0.00117996 0)
(0.1406 0.00196274 -8.99873e-19)
(0.142214 -0.00305451 0)
(0.15119 -0.0172817 8.30657e-19)
(0.158334 -0.0349107 8.25556e-19)
(0.1507 -0.0489624 0)
(0.116803 -0.0451703 0)
(0.0531091 -0.0149435 0)
(-0.0675423 0.0365875 8.05226e-19)
(-0.218337 0.0779846 0)
(-0.382475 0.106846 0)
(-0.556991 0.125061 0)
(-0.733542 0.133817 0)
(-0.906232 0.134214 0)
(-1.07041 0.128473 0)
(-1.22291 0.119271 0)
(-1.3622 0.108396 0)
(-1.48798 0.0971222 -1.05808e-19)
(-1.60088 0.0862562 0)
(-1.70179 0.0762666 0)
(-1.79195 0.0673899 9.21767e-20)
(-1.87267 0.0596783 8.92177e-20)
(-1.94522 0.053081 0)
(-2.01077 0.0474863 -8.45849e-20)
(-2.07037 0.042761 8.27123e-20)
(-2.12489 0.0387653 0)
(-2.17508 0.0353755 -7.95474e-20)
(-2.22154 0.032479 0)
(-2.26477 0.0299815 0)
(-2.30517 0.0278063 7.57162e-20)
(-2.34306 0.0258885 0)
(-2.3787 0.0241759 -7.35312e-20)
(-2.41229 0.0226283 0)
(-2.44399 0.0212118 7.15304e-20)
(-2.47392 0.0199 7.05805e-20)
(-2.50219 0.0186703 6.96572e-20)
(-2.52887 0.0175044 1.37512e-19)
(-2.55402 0.0163857 -1.35747e-19)
(-2.57768 0.0153 0)
(-2.59987 0.014233 0)
(-2.62061 0.0131707 0)
(-2.63991 0.0121003 -1.28947e-19)
(-2.65775 0.0110076 -1.27289e-19)
(-2.67414 0.00988261 1.25641e-19)
(-2.68903 0.00871836 0)
(-2.7024 0.00751669 -1.2236e-19)
(-2.71421 0.00629185 -1.20726e-19)
(-2.72441 0.00507336 -1.19098e-19)
(-2.7329 0.00389062 0)
(-2.73959 0.00276219 0)
(-2.74439 0.00171699 0)
(-2.74728 0.000797402 -1.12587e-19)
(-2.7486 -1.11738e-05 0)
(-2.7485 -0.000767973 0)
(-2.74697 -0.00151012 1.07362e-19)
(-2.74403 -0.00225179 0)
(-2.73967 -0.00299395 0)
(-2.73385 -0.00373784 1.0177e-19)
(-2.72658 -0.00448244 0)
(-2.71782 -0.00522893 0)
(-2.70758 -0.00597602 -9.57189e-20)
(-2.69583 -0.0067242 -9.35842e-20)
(-2.68257 -0.00747215 0)
(-2.66779 -0.00821998 8.91168e-20)
(-2.65149 -0.00896664 0)
(-2.63366 -0.00971178 -8.43611e-20)
(-2.61431 -0.0104547 0)
(-2.59344 -0.0111937 -7.92857e-20)
(-2.57106 -0.0119272 -7.66181e-20)
(-2.54719 -0.0126503 0)
(-2.52184 -0.0133568 0)
(-2.49503 -0.0140337 0)
(-2.46678 -0.0146678 0)
(-2.43713 -0.015252 0)
(-2.4061 -0.0158159 0)
(-2.37372 -0.0162412 0)
(-2.34009 -0.0164888 -5.16264e-20)
(-2.30525 -0.0166052 4.79893e-20)
(-2.26924 -0.016818 0)
(-2.23201 -0.0172801 0)
(-2.19362 -0.0177935 0)
(-2.1541 -0.0182716 0)
(-2.11353 -0.0187176 5.58629e-20)
(-2.07197 -0.0191414 0)
(-2.02947 -0.0195497 -3.7779e-20)
(-1.9861 -0.0199206 2.82583e-20)
(-1.94191 -0.0202721 0)
(-1.89697 -0.020593 0)
(-1.85135 -0.0208919 0)
(-1.80512 -0.0211593 1.31939e-20)
(-1.75833 -0.021402 2.44435e-20)
(-1.71106 -0.0216123 0)
(-1.66336 -0.0217938 4.80857e-20)
(-1.61525 -0.0219516 6.04928e-20)
(-1.56685 -0.0220717 -7.33289e-20)
(-1.51815 -0.0221695 0)
(-1.46927 -0.0222362 0)
(-1.42024 -0.0222769 -1.14414e-19)
(-1.37115 -0.0222878 0)
(-1.32202 -0.0222728 0)
(-1.27294 -0.0222287 0)
(-1.22395 -0.0221591 0)
(-1.17511 -0.0220644 1.92525e-19)
(-1.12646 -0.021942 2.09766e-19)
(-1.07805 -0.0217982 0)
(-1.02994 -0.0216301 2.46016e-19)
(-0.982139 -0.0214452 0)
(-0.934711 -0.0212396 0)
(-0.887662 -0.0210192 3.05267e-19)
(-0.841033 -0.0207838 0)
(-0.794828 -0.0205364 3.48421e-19)
(-0.749068 -0.0202792 0)
(-0.703751 -0.0200145 0)
(-0.65888 -0.0197461 4.19514e-19)
(-0.614443 -0.0194745 0)
(-0.570427 -0.019204 4.71874e-19)
(-0.526813 -0.0189363 0)
(-0.483573 -0.0186799 0)
(-0.440673 -0.0184345 0)
(-0.398073 -0.0182049 -5.91927e-19)
(-0.355727 -0.0179942 0)
(-0.313583 -0.0178098 6.61952e-19)
(-0.27159 -0.017638 0)
(-0.229729 -0.0174745 0)
(-0.187956 -0.0173272 0)
(-0.146242 -0.0171997 0)
(-0.104683 -0.01703 0)
(-0.0636159 -0.0167337 0)
(-0.0234956 -0.0161732 0)
(0.0129701 -0.0148894 -2.13194e-18)
(0.055774 -0.0138315 0)
(0.0595904 -0.00408694 0)
(-2.73282e-05 0.0240754 3.35871e-18)
(-0.00639432 0.0416922 -3.49323e-18)
(-0.0146699 0.0439455 0)
(-0.0178895 0.0352656 2.32494e-18)
(-0.00605504 0.0135095 0)
(0.0245334 -0.0259542 8.24443e-19)
(0.065578 -0.0741328 -9.75236e-19)
(0.113983 -0.115626 -6.70664e-19)
(0.165461 -0.142883 0)
(0.215853 -0.154776 -4.19351e-19)
(0.262332 -0.154044 -1.80768e-19)
(0.303771 -0.144628 0)
(0.339799 -0.12997 0)
(0.370439 -0.112563 0)
(0.395912 -0.0940449 0)
(0.416553 -0.0753778 -1.32217e-19)
(0.432713 -0.0570322 0)
(0.444733 -0.0391896 2.61374e-19)
(0.452964 -0.0217912 0)
(0.457791 -0.00465501 0)
(0.460196 0.012392 -2.69503e-19)
(0.459862 0.0292895 0)
(0.45636 0.0458143 2.78203e-19)
(0.449128 0.0616817 -1.42391e-19)
(0.437489 0.0764262 1.46888e-19)
(0.420755 0.089377 -1.52737e-19)
(0.398346 0.0996326 -1.60512e-19)
(0.369969 0.106112 0)
(0.335772 0.107736 0)
(0.296453 0.103707 2.06543e-19)
(0.253341 0.0938809 -2.36124e-19)
(0.208431 0.0791177 0)
(0.164257 0.0611841 0)
(0.123725 0.0420855 4.22982e-19)
(0.0900967 0.023733 0)
(0.0662255 0.00746238 0)
(0.0537951 -0.00697995 -8.11955e-19)
(0.0535012 -0.020458 0)
(0.0640996 -0.0341775 6.86996e-19)
(0.0827711 -0.0494554 -1.09746e-18)
(0.107533 -0.0644137 0)
(0.134532 -0.0741074 0)
(0.158502 -0.0741896 -1.20352e-18)
(0.175748 -0.0643824 -1.09483e-18)
(0.184862 -0.0482765 -1.0654e-18)
(0.186168 -0.0298577 5.50612e-19)
(0.18023 -0.0130807 -5.86905e-19)
(0.169735 -0.00380643 -1.87263e-18)
(0.155555 -0.00348967 1.324e-18)
(0.133214 -0.00867925 7.15669e-19)
(0.091443 -0.0125495 0)
(-0.000163015 0.00969882 -8.05747e-19)
(-0.155264 0.0745981 5.07482e-19)
(-0.335993 0.145921 0)
(-0.526836 0.211025 0)
(-0.718389 0.268445 0)
(-0.906951 0.312789 -1.29702e-19)
(-1.08646 0.338574 0)
(-1.25254 0.346829 1.94562e-19)
(-1.40242 0.340942 0)
(-1.53426 0.324518 1.62562e-19)
(-1.64835 0.301147 0)
(-1.74592 0.274081 -1.45285e-19)
(-1.82905 0.24596 0)
(-1.9001 0.218691 1.34874e-19)
(-1.96134 0.193462 -6.59247e-20)
(-2.01482 0.17087 0)
(-2.06219 0.151096 -1.24967e-19)
(-2.1048 0.134068 -6.10422e-20)
(-2.14365 0.119556 -5.99583e-20)
(-2.17948 0.107256 0)
(-2.21284 0.0968444 -5.81484e-20)
(-2.24411 0.0880121 -5.71539e-20)
(-2.27355 0.080478 0)
(-2.30138 0.0739987 5.55241e-20)
(-2.32774 0.0683723 -1.09484e-19)
(-2.35274 0.0634325 0)
(-2.37644 0.059043 -5.3299e-20)
(-2.39892 0.0550943 0)
(-2.4202 0.0514994 1.55676e-19)
(-2.44034 0.0481895 0)
(-2.45934 0.0451091 -1.51675e-19)
(-2.47724 0.0422148 -4.99305e-20)
(-2.49403 0.0394709 4.92145e-20)
(-2.50974 0.0368501 9.71553e-20)
(-2.52435 0.0343291 -9.58919e-20)
(-2.53788 0.0318902 0)
(-2.55032 0.0295177 0)
(-2.56167 0.0271985 0)
(-2.57192 0.0249198 2.72867e-19)
(-2.58107 0.0226686 8.97279e-20)
(-2.58912 0.0204322 -8.84657e-20)
(-2.59606 0.0181955 0)
(-2.60189 0.0159433 -8.5902e-20)
(-2.60662 0.013662 8.46458e-20)
(-2.61029 0.0113502 8.33617e-20)
(-2.61296 0.00901986 0)
(-2.61471 0.00669945 0)
(-2.61564 0.0044426 0)
(-2.61579 0.00231437 7.80861e-20)
(-2.61486 0.000304728 0)
(-2.61264 -0.00164414 -1.50613e-19)
(-2.60907 -0.00356398 -2.2154e-19)
(-2.60414 -0.00547002 1.44802e-19)
(-2.59781 -0.00736473 0)
(-2.59007 -0.00924911 6.94799e-20)
(-2.58089 -0.0111207 0)
(-2.57028 -0.0129784 1.32494e-19)
(-2.5582 -0.0148188 -6.47569e-20)
(-2.54466 -0.0166403 -6.31127e-20)
(-2.52964 -0.0184392 0)
(-2.51314 -0.0202131 -1.78446e-19)
(-2.49516 -0.0219581 1.15524e-19)
(-2.47569 -0.0236711 5.57441e-20)
(-2.45473 -0.0253486 0)
(-2.4323 -0.0269875 5.19376e-20)
(-2.40841 -0.0285852 1.50367e-19)
(-2.38306 -0.0301385 0)
(-2.35628 -0.0316445 9.2255e-20)
(-2.32807 -0.033099 8.80207e-20)
(-2.29846 -0.0345015 8.36746e-20)
(-2.26747 -0.0358521 0)
(-2.23512 -0.0371557 0)
(-2.20146 -0.038409 0)
(-2.16651 -0.0396175 -3.291e-20)
(-2.1303 -0.0407728 -2.97218e-20)
(-2.09285 -0.0418708 0)
(-2.05426 -0.0428813 -4.99206e-20)
(-2.01458 -0.043793 -4.46276e-20)
(-1.97385 -0.0446171 0)
(-1.93213 -0.0453705 -3.28215e-20)
(-1.88947 -0.0460392 -5.6005e-20)
(-1.84592 -0.0466347 2.13284e-20)
(-1.80155 -0.0471527 1.72086e-20)
(-1.75641 -0.047596 0)
(-1.71058 -0.0479596 0)
(-1.66411 -0.0482537 0)
(-1.61708 -0.0484738 -9.47522e-21)
(-1.56954 -0.0486274 1.3998e-20)
(-1.52156 -0.048713 4.31503e-20)
(-1.4732 -0.0487229 -2.92866e-20)
(-1.42449 -0.0486732 3.40528e-20)
(-1.37552 -0.0485533 4.30116e-20)
(-1.32631 -0.0483697 0)
(-1.27695 -0.0481295 0)
(-1.22749 -0.0478321 -6.2225e-20)
(-1.178 -0.0474804 0)
(-1.12851 -0.0470788 0)
(-1.07911 -0.0466292 1.70695e-19)
(-1.02982 -0.0461335 0)
(-0.980715 -0.0455996 9.94076e-20)
(-0.93183 -0.0450247 -1.0913e-19)
(-0.883207 -0.0444181 0)
(-0.834896 -0.0437817 1.22563e-19)
(-0.786923 -0.0431226 0)
(-0.739329 -0.0424433 0)
(-0.692132 -0.0417495 -1.48091e-19)
(-0.64536 -0.0410485 3.10074e-19)
(-0.599022 -0.0403459 -1.6391e-19)
(-0.553128 -0.0396471 0)
(-0.507678 -0.0389573 0)
(-0.462668 -0.0382832 1.85929e-19)
(-0.418087 -0.0376306 0)
(-0.373917 -0.0370023 2.01818e-19)
(-0.330134 -0.0364036 0)
(-0.286708 -0.0358421 0)
(-0.243602 -0.035323 0)
(-0.200772 -0.0348452 2.3472e-19)
(-0.158166 -0.0344177 0)
(-0.115731 -0.0340458 -2.5001e-19)
(-0.073418 -0.0337164 0)
(-0.0311831 -0.0334117 0)
(0.0110126 -0.0331179 5.43552e-19)
(0.0529233 -0.032762 -5.49915e-19)
(0.0945184 -0.0322728 0)
(0.135858 -0.0315439 0)
(0.176918 -0.0304085 0)
(0.215935 -0.0284967 1.62956e-18)
(0.259498 -0.0257019 0)
(0.283191 -0.0160676 -1.10674e-18)
(0.000833358 0.0263245 3.40184e-22)
(0.00178086 0.0469991 4.82391e-18)
(0.00626261 0.0431645 0)
(0.023699 0.0132544 -3.62406e-18)
(0.0624287 -0.0484968 0)
(0.116525 -0.123806 0)
(0.17443 -0.188027 -3.18835e-22)
(0.227553 -0.228301 3.77697e-19)
(0.27229 -0.243899 3.19577e-19)
(0.308328 -0.240274 2.81931e-19)
(0.3369 -0.224082 0)
(0.359623 -0.200935 0)
(0.377878 -0.174699 -2.27e-19)
(0.392626 -0.147685 -4.35986e-19)
(0.404476 -0.121131 4.23871e-19)
(0.41381 -0.0956237 0)
(0.420878 -0.0713628 4.1365e-19)
(0.425852 -0.0483601 -2.06546e-19)
(0.428893 -0.0265437 0)
(0.430132 -0.00579797 4.26179e-19)
(0.429877 0.0140669 2.14234e-19)
(0.428433 0.0334062 -4.34088e-19)
(0.426117 0.0525116 -2.21159e-19)
(0.423154 0.0714887 0)
(0.419571 0.0901971 4.7349e-19)
(0.415109 0.10821 4.93476e-19)
(0.409202 0.124779 0)
(0.400976 0.138838 5.41177e-19)
(0.389343 0.149076 0)
(0.37324 0.154123 6.04005e-19)
(0.351956 0.152834 3.23518e-19)
(0.32554 0.14461 0)
(0.295088 0.129619 0)
(0.262809 0.108728 0)
(0.231814 0.0833556 0)
(0.205416 0.0551586 0)
(0.186576 0.0254183 0)
(0.176411 -0.00533087 1.45883e-18)
(0.174877 -0.0364438 -2.01688e-18)
(0.180484 -0.0662182 0)
(0.188382 -0.0882355 0)
(0.191404 -0.0950984 0)
(0.185566 -0.0855416 -7.29673e-23)
(0.170622 -0.0636673 8.12171e-19)
(0.147689 -0.0371989 1.76572e-18)
(0.117178 -0.0104249 -1.97081e-18)
(0.0777443 0.0162853 -1.18146e-18)
(0.0200609 0.0396744 1.35941e-18)
(-0.0805221 0.0733738 -6.91248e-22)
(-0.222087 0.13549 6.82768e-19)
(-0.394203 0.211173 0)
(-0.582854 0.290162 3.43739e-19)
(-0.7744 0.365637 6.04286e-22)
(-0.957831 0.429011 0)
(-1.12647 0.476968 0)
(-1.27406 0.508966 -1.67178e-19)
(-1.39639 0.522948 0)
(-1.49503 0.519091 0)
(-1.57336 0.500082 1.32107e-19)
(-1.63551 0.469799 2.46545e-19)
(-1.68578 0.432392 -1.15858e-19)
(-1.72801 0.391628 0)
(-1.76528 0.350616 1.07059e-19)
(-1.79976 0.311595 0)
(-1.83276 0.275949 1.02089e-19)
(-1.86498 0.244318 9.78353e-20)
(-1.89668 0.216816 -1.9169e-19)
(-1.92792 0.193221 -9.38332e-20)
(-1.95861 0.173134 0)
(-1.98864 0.156086 1.78921e-19)
(-2.01788 0.141606 0)
(-2.04624 0.129254 2.58022e-19)
(-2.07365 0.118644 1.68923e-19)
(-2.10005 0.109444 1.65978e-19)
(-2.12542 0.101384 -1.63188e-19)
(-2.14975 0.0942463 2.40848e-19)
(-2.17303 0.0878503 0)
(-2.19527 0.0820492 0)
(-2.21647 0.0767285 -1.53134e-19)
(-2.23664 0.0717969 -2.26293e-19)
(-2.25579 0.0671813 0)
(-2.27392 0.0628226 7.32346e-20)
(-2.29105 0.0586737 0)
(-2.30718 0.0546961 -2.13056e-19)
(-2.3223 0.0508588 -1.28218e-22)
(-2.33642 0.0471365 1.20761e-22)
(-2.34954 0.0435087 1.3569e-19)
(-2.36164 0.0399585 0)
(-2.37274 0.0364721 -1.31572e-19)
(-2.38281 0.0330378 -8.48753e-23)
(-2.39187 0.0296462 0)
(-2.39989 0.0262907 0)
(-2.40689 0.0229674 0)
(-2.41285 0.0196755 1.21441e-19)
(-2.41779 0.0164174 0)
(-2.42169 0.0131978 0)
(-2.42454 0.0100213 0)
(-2.42632 0.00689088 0)
(-2.427 0.00379803 0)
(-2.42651 0.000709854 1.08962e-19)
(-2.42479 -0.00239022 0)
(-2.4218 -0.00548735 1.04456e-19)
(-2.41751 -0.00857292 1.02194e-19)
(-2.41189 -0.011645 -9.99033e-20)
(-2.40493 -0.0147019 0)
(-2.3966 -0.0177413 -9.52268e-20)
(-2.38688 -0.02076 0)
(-2.37576 -0.0237545 -9.04106e-20)
(-2.36323 -0.0267206 8.79454e-20)
(-2.34927 -0.0296541 2.56787e-19)
(-2.33388 -0.0325502 0)
(-2.31706 -0.035404 2.41447e-19)
(-2.29879 -0.03821 7.82491e-20)
(-2.27907 -0.0409629 0)
(-2.25792 -0.0436565 1.45158e-19)
(-2.23533 -0.0462856 1.39633e-19)
(-2.21131 -0.0488444 -2.00634e-19)
(-2.18588 -0.0513275 0)
(-2.15906 -0.0537275 -6.0802e-20)
(-2.13086 -0.0560371 -5.78067e-20)
(-2.10129 -0.05825 -1.65173e-19)
(-2.07039 -0.060364 0)
(-2.03818 -0.0623785 0)
(-2.0047 -0.0642864 0)
(-1.96997 -0.0660846 -4.30432e-20)
(-1.93404 -0.0677752 0)
(-1.89694 -0.0693673 0)
(-1.85875 -0.0708596 3.18065e-20)
(-1.81952 -0.0722271 2.83147e-20)
(-1.77929 -0.0734656 0)
(-1.73811 -0.0745822 0)
(-1.69603 -0.0755755 3.5067e-20)
(-1.65313 -0.0764437 0)
(-1.60944 -0.0771838 -2.02347e-20)
(-1.56503 -0.077798 -1.40479e-20)
(-1.51998 -0.0782872 0)
(-1.47433 -0.0786564 0)
(-1.42815 -0.0789086 -8.95336e-21)
(-1.38152 -0.0790474 -1.41563e-21)
(-1.33449 -0.0790751 -1.42625e-21)
(-1.2871 -0.0789903 0)
(-1.23942 -0.0787995 -8.23315e-20)
(-1.19149 -0.0785055 0)
(-1.14339 -0.0781093 0)
(-1.09515 -0.0776223 0)
(-1.04685 -0.0770438 7.39942e-20)
(-0.998539 -0.0763803 0)
(-0.950271 -0.0756357 -1.77373e-19)
(-0.902096 -0.0748161 -9.81911e-20)
(-0.854063 -0.0739251 0)
(-0.806224 -0.0729711 -1.14265e-19)
(-0.758616 -0.0719573 0)
(-0.711285 -0.0708913 0)
(-0.664264 -0.0697811 -4.11735e-19)
(-0.617588 -0.0686342 2.89341e-19)
(-0.571281 -0.0674587 0)
(-0.525368 -0.0662612 3.2051e-19)
(-0.479864 -0.0650531 -1.69208e-19)
(-0.434779 -0.0638435 0)
(-0.390117 -0.0626408 0)
(-0.345874 -0.0614534 0)
(-0.302041 -0.0602896 -5.94202e-19)
(-0.258602 -0.0591591 0)
(-0.215536 -0.058066 -2.12932e-19)
(-0.172813 -0.0570187 0)
(-0.130397 -0.0560257 0)
(-0.0882473 -0.0550953 0)
(-0.0463147 -0.0542275 0)
(-0.00453693 -0.0534304 0)
(0.0371097 -0.0527018 0)
(0.0786619 -0.0520343 -5.038e-19)
(0.120215 -0.0514065 0)
(0.161852 -0.0507834 -2.56199e-19)
(0.203628 -0.0501032 7.7107e-19)
(0.245583 -0.0493126 0)
(0.287643 -0.0482861 0)
(0.329932 -0.0468257 -5.19867e-19)
(0.371137 -0.04452 -5.23328e-19)
(0.41618 -0.0412018 5.2591e-19)
(0.449462 -0.0318035 5.35452e-19)
(-0.0011433 0.0256498 -6.77e-18)
(0.00118437 0.0351146 -7.66255e-18)
(0.0194987 0.0015064 -3.69319e-18)
(0.0665084 -0.0822356 -9.84637e-19)
(0.131675 -0.18148 0)
(0.19653 -0.260582 8.29627e-19)
(0.249037 -0.304696 -3.29055e-19)
(0.28644 -0.316603 0)
(0.311358 -0.306187 -2.47791e-19)
(0.327798 -0.283123 0)
(0.339117 -0.254098 4.22418e-19)
(0.347493 -0.222961 0)
(0.354118 -0.191677 1.90312e-19)
(0.359537 -0.161155 3.68562e-19)
(0.363941 -0.131789 -3.60832e-19)
(0.367353 -0.103729 0)
(0.369742 -0.0770162 -3.55633e-19)
(0.371079 -0.0516306 0)
(0.37136 -0.0275312 0)
(0.370604 -0.00465851 -3.69924e-19)
(0.368892 0.0170736 0)
(0.36635 0.0378193 -6.74296e-22)
(0.363185 0.057733 0)
(0.359684 0.0769734 0)
(0.356143 0.0956208 6.17113e-22)
(0.35279 0.113608 -4.21559e-19)
(0.349726 0.130678 -4.43283e-19)
(0.34684 0.14631 -4.67659e-19)
(0.343722 0.159666 0)
(0.339628 0.169574 -1.05344e-18)
(0.333585 0.17462 0)
(0.324653 0.17336 -5.97885e-19)
(0.312269 0.164609 0)
(0.296618 0.147684 0)
(0.278675 0.122629 7.70436e-19)
(0.260246 0.0903914 0)
(0.243346 0.0527039 -9.68612e-19)
(0.229527 0.0119081 -2.27523e-21)
(0.218685 -0.0284821 2.06849e-18)
(0.206198 -0.0620699 -1.84487e-18)
(0.18542 -0.0770002 0)
(0.154236 -0.0697079 0)
(0.111288 -0.0449327 -8.19659e-19)
(0.0573531 -0.00698495 0)
(-0.0104189 0.0382796 -9.72844e-19)
(-0.105724 0.0911502 7.77261e-19)