# vtk DataFile Version 2.0
track0
ASCII
DATASET POLYDATA
POINTS 11980 double
-0.0205 0.001 1e-05
-0.0202034 0.00100015 1e-05
-0.0199069 0.00100058 1e-05
-0.0196103 0.00100126 1e-05
-0.0193137 0.00100221 1e-05
-0.0190172 0.00100341 1e-05
-0.0187132 0.00100487 1e-05
-0.0184093 0.00100642 1e-05
-0.0181054 0.00100805 1e-05
-0.0178015 0.00100976 1e-05
-0.0174976 0.00101155 1e-05
-0.0172058 0.00101334 1e-05
-0.016914 0.00101514 1e-05
-0.0166222 0.00101697 1e-05
-0.0163305 0.00101883 1e-05
-0.0160387 0.00102071 1e-05
-0.0158517 0.00102193 1e-05
-0.0156648 0.00102316 1e-05
-0.0154779 0.0010244 1e-05
-0.0152909 0.00102565 1e-05
-0.0151169 0.00102682 1e-05
-0.0150211 0.00102747 1e-05
-0.0149254 0.00102812 1e-05
-0.0148296 0.00102877 1e-05
-0.0147338 0.00102943 1e-05
-0.0146381 0.00103009 1e-05
-0.0143692 0.00103195 1e-05
-0.0141002 0.00103382 1e-05
-0.0138313 0.0010357 1e-05
-0.0135624 0.0010376 1e-05
-0.0132934 0.00103951 1e-05
-0.0130353 0.00104136 1e-05
-0.0127771 0.00104321 1e-05
-0.0125189 0.00104506 1e-05
-0.0122607 0.00104691 1e-05
-0.0120025 0.00104876 1e-05
-0.0117547 0.00105054 1e-05
-0.0115068 0.00105232 1e-05
-0.0112589 0.00105409 1e-05
-0.0110111 0.00105586 1e-05
-0.0107632 0.00105762 1e-05
-0.0105252 0.00105931 1e-05
-0.0102873 0.00106099 1e-05
-0.0100493 0.00106267 1e-05
-0.00981133 0.00106433 1e-05
-0.00957337 0.00106599 1e-05
-0.00934491 0.00106757 1e-05
-0.00911645 0.00106915 1e-05
-0.00888799 0.00107071 1e-05
-0.00865954 0.00107227 1e-05
-0.00843108 0.00107382 1e-05
-0.00821175 0.0010753 1e-05
-0.00799242 0.00107676 1e-05
-0.00777309 0.00107822 1e-05
-0.00755376 0.00107967 1e-05
-0.00733443 0.00108111 1e-05
-0.00712387 0.00108248 1e-05
-0.0069133 0.00108384 1e-05
-0.00670273 0.00108519 1e-05
-0.00649216 0.00108653 1e-05
-0.0062816 0.00108786 1e-05
-0.00607944 0.00108913 1e-05
-0.00587729 0.00109039 1e-05
-0.00567514 0.00109163 1e-05
-0.00547298 0.00109287 1e-05
-0.00527083 0.00109409 1e-05
-0.00507675 0.00109526 1e-05
-0.00488267 0.00109641 1e-05
-0.0046886 0.00109755 1e-05
-0.00449452 0.00109868 1e-05
-0.00430044 0.0010998 1e-05
-0.00411412 0.00110086 1e-05
-0.0039278 0.0011019 1e-05
-0.00374147 0.00110294 1e-05
-0.00355515 0.00110396 1e-05
-0.00336883 0.00110497 1e-05
-0.00318995 0.00110592 1e-05
-0.00301107 0.00110686 1e-05
-0.00283219 0.00110779 1e-05
-0.00265331 0.0011087 1e-05
-0.00247443 0.00110959 1e-05
-0.0023027 0.00111043 1e-05
-0.00213097 0.00111126 1e-05
-0.00195924 0.00111206 1e-05
-0.0017875 0.00111285 1e-05
-0.00161577 0.00111362 1e-05
-0.0014509 0.00111433 1e-05
-0.00128603 0.00111503 1e-05
-0.00112116 0.0011157 1e-05
-0.000956289 0.00111634 1e-05
-0.000791418 0.00111696 1e-05
-0.000633135 0.00111752 1e-05
-0.000474851 0.00111807 1e-05
-0.000316567 0.00111858 1e-05
-0.000158283 0.00111907 1e-05
0 0.00111953 1e-05
0.000105677 0.00111983 1e-05
0.000211355 0.00112011 1e-05
0.000317032 0.00112039 1e-05
0.00042271 0.00112065 1e-05
0.000528387 0.00112091 1e-05
0.000634886 0.00112115 1e-05
0.000741385 0.0011214 1e-05
0.000847885 0.00112164 1e-05
0.000954384 0.00112187 1e-05
0.00106088 0.0011221 1e-05
0.00116821 0.00112232 1e-05
0.00127554 0.00112254 1e-05
0.00138286 0.00112276 1e-05
0.00149019 0.00112297 1e-05
0.00159752 0.00112317 1e-05
0.00170568 0.00112336 1e-05
0.00181384 0.00112356 1e-05
0.001922 0.00112374 1e-05
0.00203016 0.00112392 1e-05
0.00213833 0.0011241 1e-05
0.00224733 0.00112426 1e-05
0.00235633 0.00112442 1e-05
0.00246533 0.00112457 1e-05
0.00257434 0.00112472 1e-05
0.00268334 0.00112486 1e-05
0.00279319 0.00112499 1e-05
0.00290304 0.00112512 1e-05
0.00301289 0.00112524 1e-05
0.00312274 0.00112536 1e-05
0.00323259 0.00112547 1e-05
0.00334329 0.00112557 1e-05
0.003454 0.00112567 1e-05
0.0035647 0.00112576 1e-05
0.0036754 0.00112585 1e-05
0.00378611 0.00112593 1e-05
0.00389767 0.00112601 1e-05
0.00400924 0.00112608 1e-05
0.0041208 0.00112615 1e-05
0.00423237 0.00112621 1e-05
0.00434393 0.00112627 1e-05
0.00445636 0.00112632 1e-05
0.00456879 0.00112637 1e-05
0.00468123 0.00112642 1e-05
0.00479366 0.00112646 1e-05
0.00490609 0.00112649 1e-05
0.0050194 0.00112652 1e-05
0.0051327 0.00112655 1e-05
0.00524601 0.00112657 1e-05
0.00535931 0.00112659 1e-05
0.00547262 0.0011266 1e-05
0.00558681 0.00112661 1e-05
0.005701 0.00112662 1e-05
0.00581518 0.00112662 1e-05
0.00592937 0.00112661 1e-05
0.00604356 0.0011266 1e-05
0.00615863 0.00112659 1e-05
0.00627371 0.00112657 1e-05
0.00638878 0.00112655 1e-05
0.00650386 0.00112652 1e-05
0.00661893 0.00112649 1e-05
0.0067349 0.00112645 1e-05
0.00685087 0.00112641 1e-05
0.00696684 0.00112636 1e-05
0.00708281 0.00112631 1e-05
0.00719878 0.00112625 1e-05
0.00731565 0.00112619 1e-05
0.00743252 0.00112612 1e-05
0.00754939 0.00112604 1e-05
0.00766626 0.00112596 1e-05
0.00778313 0.00112588 1e-05
0.00790091 0.00112578 1e-05
0.00801869 0.00112568 1e-05
0.00813647 0.00112558 1e-05
0.00825425 0.00112547 1e-05
0.00837203 0.00112535 1e-05
0.00841395 0.0011253 1e-05
0.00845588 0.00112526 1e-05
0.0084978 0.00112521 1e-05
0.00853972 0.00112516 1e-05
0.00858093 0.00112512 1e-05
0.00865785 0.00112503 1e-05
0.00873476 0.00112493 1e-05
0.00881168 0.00112484 1e-05
0.0088886 0.00112474 1e-05
0.00896551 0.00112464 1e-05
0.00908513 0.00112447 1e-05
0.00920475 0.0011243 1e-05
0.00932437 0.00112412 1e-05
0.00944398 0.00112393 1e-05
0.0095636 0.00112373 1e-05
0.00968415 0.00112352 1e-05
0.0098047 0.0011233 1e-05
0.00992525 0.00112308 1e-05
0.0100458 0.00112284 1e-05
0.0101663 0.0011226 1e-05
0.0102878 0.00112233 1e-05
0.0104093 0.00112207 1e-05
0.0105308 0.0011218 1e-05
0.0106523 0.00112152 1e-05
0.0107738 0.00112122 1e-05
0.0108962 0.0011209 1e-05
0.0110186 0.00112058 1e-05
0.0111411 0.00112026 1e-05
0.0112635 0.00111992 1e-05
0.0113859 0.00111958 1e-05
0.0115093 0.00111919 1e-05
0.0116327 0.00111881 1e-05
0.0117561 0.00111843 1e-05
0.0118795 0.00111804 1e-05
0.0120028 0.00111764 1e-05
0.0121272 0.00111719 1e-05
0.0122515 0.00111675 1e-05
0.0123759 0.00111631 1e-05
0.0125002 0.00111586 1e-05
0.0126245 0.00111539 1e-05
0.0127498 0.00111488 1e-05
0.0128752 0.00111438 1e-05
0.0130005 0.00111388 1e-05
0.0131258 0.00111336 1e-05
0.0132511 0.00111283 1e-05
0.0133774 0.00111225 1e-05
0.0135036 0.00111169 1e-05
0.0136299 0.00111112 1e-05
0.0137562 0.00111054 1e-05
0.0138825 0.00110994 1e-05
0.0140098 0.00110929 1e-05
0.014137 0.00110866 1e-05
0.0142643 0.00110803 1e-05
0.0143915 0.00110738 1e-05
0.0145188 0.00110672 1e-05
0.0146471 0.001106 1e-05
0.0147753 0.0011053 1e-05
0.0149036 0.0011046 1e-05
0.0150318 0.00110388 1e-05
0.0151601 0.00110315 1e-05
0.0152893 0.00110236 1e-05
0.0154186 0.00110159 1e-05
0.0155478 0.00110082 1e-05
0.0156771 0.00110003 1e-05
0.0158063 0.00109923 1e-05
0.0159366 0.00109838 1e-05
0.0160668 0.00109754 1e-05
0.0161971 0.0010967 1e-05
0.0163274 0.00109585 1e-05
0.0164576 0.00109497 1e-05
0.0165889 0.00109406 1e-05
0.0167201 0.00109315 1e-05
0.0168514 0.00109224 1e-05
0.0169827 0.00109132 1e-05
0.0171139 0.00109038 1e-05
0.0172462 0.00108941 1e-05
0.0173785 0.00108844 1e-05
0.0175108 0.00108746 1e-05
0.0176431 0.00108648 1e-05
0.0177754 0.00108547 1e-05
0.0179087 0.00108444 1e-05
0.018042 0.00108341 1e-05
0.0181753 0.00108237 1e-05
0.0183087 0.00108132 1e-05
0.018442 0.00108025 1e-05
0.0185763 0.00107916 1e-05
0.0187107 0.00107807 1e-05
0.018845 0.00107697 1e-05
0.0189794 0.00107586 1e-05
0.0191137 0.00107474 1e-05
0.0192491 0.00107359 1e-05
0.0193845 0.00107244 1e-05
0.0195199 0.00107128 1e-05
0.0196553 0.00107011 1e-05
0.0197907 0.00106893 1e-05
0.0199272 0.00106774 1e-05
0.0200636 0.00106654 1e-05
0.0202001 0.00106532 1e-05
0.0203365 0.00106409 1e-05
0.020473 0.00106286 1e-05
0.0206105 0.00106162 1e-05
0.020748 0.00106037 1e-05
0.0208855 0.0010591 1e-05
0.021023 0.00105782 1e-05
0.0211606 0.00105654 1e-05
0.0212991 0.00105526 1e-05
0.0214377 0.00105395 1e-05
0.0215763 0.00105263 1e-05
0.0217149 0.0010513 1e-05
0.0218535 0.00104998 1e-05
0.0219931 0.00104866 1e-05
0.0221328 0.00104731 1e-05
0.0222724 0.00104594 1e-05
0.0224121 0.00104457 1e-05
0.0225517 0.00104321 1e-05
0.0226925 0.00104185 1e-05
0.0228332 0.00104046 1e-05
0.022974 0.00103905 1e-05
0.0231147 0.00103763 1e-05
0.0232555 0.00103623 1e-05
0.0233973 0.00103484 1e-05
0.0235391 0.00103341 1e-05
0.023681 0.00103196 1e-05
0.0238228 0.00103051 1e-05
0.0239647 0.00102907 1e-05
0.0241076 0.00102764 1e-05
0.0242505 0.00102618 1e-05
0.0243935 0.0010247 1e-05
0.0245364 0.00102321 1e-05
0.0246794 0.00102174 1e-05
0.0248234 0.00102028 1e-05
0.0249675 0.00101879 1e-05
0.0251115 0.00101728 1e-05
0.0252556 0.00101576 1e-05
0.0253996 0.00101426 1e-05
0.0255448 0.00101278 1e-05
0.02569 0.00101126 1e-05
0.0258351 0.00100972 1e-05
0.0259803 0.00100818 1e-05
0.0261255 0.00100665 1e-05
0.0262718 0.00100514 1e-05
0.0264181 0.00100359 1e-05
0.0265644 0.00100203 1e-05
0.0267107 0.00100046 1e-05
0.026857 0.000998911 1e-05
0.0270044 0.000997377 1e-05
0.0271519 0.000995805 1e-05
0.0272993 0.00099422 1e-05
0.0274468 0.000992635 1e-05
0.0275942 0.000991058 1e-05
0.0277428 0.000989501 1e-05
0.0278914 0.000987904 1e-05
0.0280399 0.0009863 1e-05
0.0281885 0.000984696 1e-05
0.0283371 0.000983097 1e-05
0.0284869 0.000981517 1e-05
0.0286366 0.000979897 1e-05
0.0287863 0.000978275 1e-05
0.0289361 0.000976653 1e-05
0.0290858 0.000975032 1e-05
0.0292367 0.00097343 1e-05
0.0293876 0.000971791 1e-05
0.0295385 0.000970152 1e-05
0.0296894 0.000968513 1e-05
0.0298403 0.000966875 1e-05
0.0299924 0.000965251 1e-05
0.0301445 0.000963595 1e-05
0.0302966 0.000961939 1e-05
0.0304486 0.000960284 1e-05
0.0306007 0.000958628 1e-05
0.030754 0.00095698 1e-05
0.0309072 0.000955308 1e-05
0.0310605 0.000953635 1e-05
0.0312138 0.000951961 1e-05
0.031367 0.000950287 1e-05
0.0315215 0.000948617 1e-05
0.0316759 0.000946926 1e-05
0.0318304 0.000945234 1e-05
0.0319848 0.000943542 1e-05
0.0321393 0.000941849 1e-05
0.0322949 0.000940152 1e-05
0.0324506 0.000938442 1e-05
0.0326062 0.00093673 1e-05
0.0327619 0.000935017 1e-05
0.0329175 0.000933302 1e-05
0.0330744 0.000931579 1e-05
0.0332313 0.000929846 1e-05
0.0333881 0.000928112 1e-05
[...]
POINT_DATA 11980
 FIELD attributes 2
p 1 11980 float
-5.83717 -5.87151 -5.90773 -5.9442 -5.98089 -6.03337 -6.10633 -6.17265 -6.23896 -6.30527 -6.37082 -6.41532 -6.45705 -6.49877 -6.54048 -6.58109 -6.59766 -6.61439 -6.63112 -6.64785 -6.66343 -6.67202 -6.68062 -6.68921 -6.69781 -6.70632 -6.73093 -6.75563 -6.78033 -6.80503 -6.82987 -6.85504 -6.88025 -6.90547 -6.93069 -6.95561 -6.97833 -7.00083 -7.02333 -7.04582 -7.06771 -7.0874 -7.10695 -7.1265 -7.14605 -7.1652 -7.18294 -7.20072 -7.21851 -7.23629 -7.25392 -7.27052 -7.28725 -7.30399 -7.32072 -7.3374 -7.35316 -7.36914 -7.38512 -7.40111 -7.4171 -7.43224 -7.4477 -7.46317 -7.47864 -7.49419 -7.50893 -7.52415 -7.53936 -7.55457 -7.56986 -7.58443 -7.5996 -7.61476 -7.62993 -7.64507 -7.65954 -7.67477 -7.69002 -7.70525 -7.72021 -7.73447 -7.74927 -7.76409 -7.77883 -7.79268 -7.80553 -7.81851 -7.83151 -7.84428 -7.85563 -7.86527 -7.87212 -7.87844 -7.88422 -7.88744 -7.88954 -7.8892 -7.88838 -7.88746 -7.8859 -7.88516 -7.8835 -7.88175 -7.88001 -7.87863 -7.87819 -7.87894 -7.87973 -7.88052 -7.88261 -7.88451 -7.88703 -7.88955 -7.89207 -7.89512 -7.89802 -7.90012 -7.90221 -7.9043 -7.90601 -7.9087 -7.91014 -7.91158 -7.91302 -7.91362 -7.91615 -7.91751 -7.91887 -7.92022 -7.92053 -7.9229 -7.92427 -7.92564 -7.92701 -7.92736 -7.92925 -7.93046 -7.93166 -7.93287 -7.93334 -7.93461 -7.9356 -7.9366 -7.93759 -7.93826 -7.93902 -7.93987 -7.94073 -7.94158 -7.94245 -7.94291 -7.94368 -7.94445 -7.94522 -7.94622 -7.94657 -7.94729 -7.94801 -7.94874 -7.94975 -7.9501 -7.95079 -7.95147 -7.95216 -7.95306 -7.95348 -7.9541 -7.95472 -7.95534 -7.95602 -7.95616 -7.95634 -7.95652 -7.95671 -7.95688 -7.95722 -7.95756 -7.9579 -7.95824 -7.95845 -7.95891 -7.95928 -7.95965 -7.96002 -7.96026 -7.96043 -7.96059 -7.96075 -7.96092 -7.96123 -7.96076 -7.96066 -7.96057 -7.96047 -7.96107 -7.95966 -7.95926 -7.95887 -7.95847 -7.95957 -7.95696 -7.95624 -7.95552 -7.9548 -7.95656 -7.95257 -7.95151 -7.95045 -7.94939 -7.95192 -7.94647 -7.94507 -7.94367 -7.94226 -7.94562 -7.9387 -7.93697 -7.93524 -7.9335 -7.93768 -7.92937 -7.92734 -7.9253 -7.92331 -7.92822 -7.91905 -7.91638 -7.91409 -7.91269 -7.91746 -7.90812 -7.90439 -7.9019 -7.90114 -7.90564 -7.89634 -7.89163 -7.889 -7.88891 -7.89308 -7.88402 -7.87847 -7.87577 -7.87635 -7.88018 -7.87155 -7.86538 -7.8627 -7.86392 -7.86739 -7.85931 -7.85274 -7.85017 -7.85198 -7.85512 -7.84769 -7.84092 -7.83854 -7.84091 -7.84379 -7.8371 -7.83041 -7.82844 -7.83115 -7.83385 -7.82799 -7.82212 -7.8205 -7.82313 -7.82575 -7.82077 -7.81578 -7.8146 -7.81724 -7.81988 -7.81583 -7.81178 -7.81111 -7.81386 -7.81661 -7.81353 -7.81045 -7.81036 -7.8133 -7.81624 -7.81415 -7.81206 -7.8126 -7.81582 -7.81903 -7.81794 -7.81685 -7.81806 -7.82161 -7.82516 -7.82506 -7.82507 -7.82705 -7.83082 -7.83475 -7.83563 -7.83687 -7.83955 -7.8435 -7.84786 -7.84969 -7.85205 -7.85542 -7.85965 -7.86446 -7.86721 -7.8706 -7.87466 -7.87925 -7.88452 -7.88816 -7.8925 -7.89721 -7.90222 -7.90793 -7.91243 -7.9176 -7.92296 -7.92841 -7.93456 -7.93986 -7.94579 -7.95175 -7.95772 -7.96427 -7.97036 -7.97689 -7.98342 -7.98995 -7.99681 -8.00359 -8.01062 -8.01765 -8.02467 -8.03186 -8.03921 -8.04667 -8.05414 -8.0616 -8.06912 -8.07693 -8.08479 -8.09264 -8.1005 -8.10836 -8.11655 -8.12475 -8.13295 -8.14115 -8.14934 -8.15782 -8.16631 -8.17479 -8.18327 -8.19175 -8.19337 -8.19499 -8.1966 -8.19822 -8.19983 -8.20692 -8.214 -8.22109 -8.22818 -8.23533 -8.24415 -8.25302 -8.26189 -8.27075 -8.27974 -8.28864 -8.29761 -8.30659 -8.31557 -8.3247 -8.33364 -8.34268 -8.35171 -8.36075 -8.36996 -8.37892 -8.38796 -8.39701 -8.40605 -8.41527 -8.42421 -8.43321 -8.44222 -8.45122 -8.46038 -8.46927 -8.47818 -8.48709 -8.49601 -8.50504 -8.51384 -8.52262 -8.53139 -8.54017 -8.54902 -8.55768 -8.56629 -8.57488 -8.58349 -8.59211 -8.60059 -8.60902 -8.6174 -8.62578 -8.63415 -8.64242 -8.65065 -8.6588 -8.66691 -8.675 -8.68303 -8.69103 -8.69891 -8.70671 -8.7145 -8.72225 -8.73 -8.73758 -8.74503 -8.75249 -8.75993 -8.76738 -8.77463 -8.78174 -8.78884 -8.79596 -8.80307 -8.80999 -8.81673 -8.82347 -8.83025 -8.83702 -8.84359 -8.84995 -8.85631 -8.86272 -8.86913 -8.87533 -8.88129 -8.88725 -8.89328 -8.89931 -8.90512 -8.91066 -8.91619 -8.92181 -8.92742 -8.93281 -8.93792 -8.943 -8.94819 -8.95331 -8.95824 -8.96294 -8.96754 -8.97226 -8.97686 -8.9813 -8.98557 -8.98966 -8.99387 -8.9979 -9.00181 -9.00563 -9.00917 -9.01285 -9.01626 -9.01961 -9.02294 -9.02591 -9.02899 -9.03174 -9.03449 -9.03725 -9.03966 -9.04205 -9.04415 -9.04626 -9.04837 -9.05022 -9.05186 -9.05328 -9.0547 -9.05613 -9.0574 -9.05824 -9.05895 -9.05966 -9.06038 -9.06104 -9.06107 -9.06106 -9.06105 -9.06104 -9.06103 -9.06104 -9.06106 -9.06108 -9.06109 -9.06105 -9.06039 -9.05967 -9.05895 -9.05823 -9.05733 -9.05605 -9.05455 -9.05306 -9.05157 -9.04976 -9.04783 -9.04553 -9.04323 -9.04093 -9.03815 -9.03554 -9.03239 -9.02925 -9.02603 -9.0223 -9.01883 -9.01496 -9.01094 -9.00667 -9.00204 -8.99769 -8.9931 -8.98819 -8.98285 -8.97731 -8.97207 -8.96676 -8.96095 -8.95451 -8.94805 -8.94191 -8.93577 -8.929 -8.9216 -8.9142 -8.90713 -8.90007 -8.89236 -8.88398 -8.87561 -8.86758 -8.85955 -8.85084 -8.84143 -8.83202 -8.82297 -8.8138 -8.80397 -8.79365 -8.78317 -8.77305 -8.76254 -8.75162 -8.74046 -8.72887 -8.71767 -8.7058 -8.69378 -8.68176 -8.66909 -8.65667 -8.64355 -8.63042 -8.61731 -8.60379 -8.58999 -8.57576 -8.56153 -8.54731 -8.53298 -8.52695 -8.5208 -8.51464 -8.50849 -8.50251 -8.49336 -8.48421 -8.47507 -8.46592 -8.4566 -8.44039 -8.424 -8.40762 -8.39125 -8.37435 -8.35723 -8.33961 -8.322 -8.30435 -8.28587 -8.26762 -8.2489 -8.23002 -8.21072 -8.19093 -8.17142 -8.15175 -8.1316 -8.11061 -8.08954 -8.06875 -8.04796 -8.02642 -8.00406 -7.9817 -7.95965 -7.93761 -7.91474 -7.89111 -7.86749 -7.84419 -7.82066 -7.79645 -7.77188 -7.74702 -7.72249 -7.69727 -7.6718 -7.64634 -7.62023 -7.59418 -7.56736 -7.54054 -7.51373 -7.48668 -7.4718 -7.45664 -7.44148 -7.42633 -7.41171 -7.39858 -7.38546 -7.37233 -7.35921 -7.34591 -7.31651 -7.287 -7.25749 -7.22799 -7.19795 -7.16744 -7.13657 -7.10571 -7.07467 -7.0431 -7.01127 -6.9793 -6.94711 -6.91438 -6.8815 -6.84835 -6.8152 -6.78161 -6.74749 -6.71337 -6.67896 -6.64456 -6.60966 -6.57436 -6.53906 -6.50348 -6.46762 -6.43142 -6.39512 -6.35856 -6.32171 -6.28416 -6.24661 -6.20908 -6.17132 -6.14602 -6.12042 -6.09484 -6.06925 -6.04462 -6.03114 -6.01767 -6.00419 -5.99072 -5.97691 -5.93707 -5.89698 -5.85689 -5.81681 -5.77546 -5.73511 -5.69385 -5.65255 -5.61063 -5.56778 -5.52624 -5.48457 -5.44209 -5.39811 -5.35412 -5.31142 -5.26872 -5.2248 -5.17973 -5.13465 -5.09083 -5.0466 -5.0013 -4.95564 -4.90953 -4.86465 -4.81838 -4.77203 -4.72568 -4.67891 -4.65089 -4.62228 -4.59368 -4.56508 -4.53731 -4.51845 -4.4996 -4.48074 -4.46189 -4.44282 -4.39478 -4.34666 -4.29855 -4.25044 -4.20176 -4.15304 -4.10417 -4.05526 -4.00606 -3.95665 -3.90716 -3.85767 -3.80794 -3.7579 -3.70785 -3.65766 -3.60747 -3.55695 -3.50634 -3.45569 -3.40487 -3.35386 -3.30278 -3.2517 -3.20053 -3.15935 -3.11806 -3.07677 -3.03549 -2.99558 -2.98501 -2.97445 -2.96389 -2.95333 -2.94277 -2.89075 -2.83875 -2.78675 -2.73477 -2.68285 -2.63033 -2.57793 -2.52558 -2.47332 -2.4211 -2.36829 -2.31549 -2.26291 -2.21053 -2.15814 -2.10516 -2.05221 -1.99951 -1.94698 -1.89452 -1.84145 -1.78866 -1.73592 -1.68318 -1.63057 -1.6072 -1.58396 -1.56072 -1.53748 -1.51462 -1.48502 -1.45542 -1.42582 -1.39622 -1.36677 -1.31382 -1.26111 -1.20841 -1.1558 -1.10351 -1.05056 -0.997704 -0.945184 -0.893154 -0.841106 -0.788384 -0.735666 -0.683413 -0.631711 -0.579991 -0.527583 -0.47555 -0.423746 -0.371947 -0.320541 -0.2859 -0.251613 -0.217328 -0.183045 -0.149493 -0.132201 -0.114909 -0.0976181 -0.0803275 -0.0631962 -0.0119221 0.0391384 0.0901954 0.141188 0.19163 0.242705 0.293586 0.344116 0.394025 0.443905 0.49442 0.544931 0.594853 0.644106 0.693376 0.74328 0.792725 0.841897 0.891066 0.939809 0.968508 0.996829 1.02515 1.05347 1.08134 1.1017 1.12205 1.14241 1.16276 1.18287 1.23119 1.27919 1.3272 1.37504 1.42234 1.4702 1.51797 1.56518 1.61172 1.65828 1.70538 1.75249 1.79886 1.84476 1.89055 1.93688 1.98255 2.02811 2.07367 2.11902 2.13147 2.14373 2.156 2.16826 2.18045 2.21312 2.2458 2.27847 2.31114 2.34333 2.38808 2.43223 2.47637 2.52009 2.56346 2.60736 2.65125 2.69442 2.73689 2.77938 2.82239 2.86513 2.90733 2.94942 2.991 3.02489 3.05817 3.09144 3.12472 3.15764 3.16578 3.17393 3.18207 3.19021 3.1982 3.23904 3.27969 3.32035 3.36092 3.40073 3.44112 3.48133 3.52107 3.55996 3.59885 3.63834 3.67783 3.71652 3.75461 3.79259 3.83118 3.86904 3.90677 3.9445 3.98201 3.99084 3.99948 4.00812 4.01677 4.0254 4.0538 4.0822 4.11061 4.13901 4.16699 4.20371 4.23999 4.27622 4.31209 4.34776 4.38359 4.41942 4.45477 4.48963 4.52449 4.55944 4.59418 4.6287 4.66322 4.69735 4.71835 4.73915 4.75995 4.78075 4.80158 4.81462 4.82767 4.84071 4.85375 4.86684 4.90015 4.93342 4.96668 4.99999 5.0334 5.06606 5.09871 5.13133 5.16408 5.19682 5.22882 5.26084 5.29302 5.32517 5.35728 5.38766 5.41821 5.44876 5.47932 5.51004 5.51102 5.51201 5.51299 5.51398 5.51496 5.54613 5.57729 5.60846 5.63962 5.67053 5.70139 5.73214 5.76274 5.7931 5.82344 5.85377 5.88409 5.91421 5.9441 5.97394 6.00378 6.03343 6.06305 6.09268 6.12225 6.12667 6.13106 6.13545 6.13984 6.14424 6.16916 6.19408 6.219 6.24393 6.26864 6.29779 6.3268 6.35572 6.38443 6.4131 6.44184 6.47058 6.49913 6.52741 6.55569 6.58402 6.61218 6.6403 6.66842 6.69647 6.70202 6.70753 6.71304 6.71855 6.72406 6.74641 6.76877 6.79112 6.81347 6.83572 6.86344 6.89103 6.91855 6.94595 6.97333 7.00065 7.02797 7.05528 7.08245 7.10961 7.1367 7.16332 7.18985 7.21639 7.24282 7.2459 7.24917 7.25245 7.25573 7.25901 7.28285 7.30669 7.33053 7.3544 7.37967 7.40825 7.43467 7.45866 7.47585 7.4925 7.50894 7.52538 7.55711 7.59687 7.63904 7.66574 7.68489 7.69809 7.71129 7.72462 7.73606 7.7475 7.75894 7.7673 7.77168 7.78411 7.79915 7.81499 7.8398 7.86472 7.88984 7.91478 7.93952 7.96424 7.98962 7.9897 7.98978 7.98986 7.98994 7.99002 8.01451 8.03899 8.06345 8.08726 8.11049 8.13397 8.1574 8.18052 8.20363 8.22637 8.23103 8.2356 8.24004 8.24449 8.24902 8.26723 8.28542 8.30359 8.32134 8.33876 8.36058 8.38236 8.40301 8.423 8.44258 8.44969 8.45653 8.46298 8.46943 8.47623 8.48835 8.50044 8.51251 8.52402 8.53506 8.55209 8.56906 8.58442 8.59812 8.61173 8.61952 8.62657 8.63271 8.63883 8.6457 8.65039 8.65506 8.65972 8.66392 8.66762 8.67636 8.68398 8.69072 8.69444 8.69806 8.70039 8.7008 8.69912 8.69736 8.69491 8.69438 8.69359 8.69262 8.69166 8.69066 8.68448 8.67816 8.6717 8.66376 8.65319 8.63944 8.62555 8.60745 8.5852 8.56281 8.53892 8.51053 8.48042 8.45024 8.41373 8.41295 8.41205 8.41113 8.41021 8.40928 8.36892 8.32837 8.28761 8.24569 8.19782 8.14554 8.09311 8.03301 7.96599 7.89879 7.82754 7.75401 7.67392 7.5923 7.50636 7.43363 7.35004 7.26644 7.1828 7.07323 7.05824 7.04325 7.02825 7.01324 6.99647 6.87454 6.75142 6.62813 6.50467 6.3741 6.23812 6.0905 5.93262 5.75109 5.5631 5.36776 5.17226 4.9926 4.82822 4.66372 4.49289 4.29553 4.00844 3.68225 3.31268 2.92864 2.71638 2.52391 2.33269 2.23373 2.14221 1.8315 1.51985 1.2073 1.00204 0.838886 0.676621 0.515228 0.354697 0