# vtk DataFile Version 2.0
track0
ASCII
DATASET POLYDATA
POINTS 11980 double
-0.0205 0.001 1e-05
-0.0202034 0.00100015 1e-05
-0.0199069 0.00100058 1e-05
-0.0196103 0.00100126 1e-05
-0.0193137 0.00100221 1e-05
-0.0190172 0.00100341 1e-05
-0.0187132 0.00100487 1e-05
-0.0184093 0.00100642 1e-05
-0.0181054 0.00100805 1e-05
-0.0178015 0.00100976 1e-05
-0.0174976 0.00101155 1e-05
-0.0172058 0.00101334 1e-05
-0.016914 0.00101514 1e-05
-0.0166222 0.00101697 1e-05
-0.0163305 0.00101883 1e-05
-0.0160387 0.00102071 1e-05
-0.0158517 0.00102193 1e-05
-0.0156648 0.00102316 1e-05
-0.0154779 0.0010244 1e-05
-0.0152909 0.00102565 1e-05
-0.0151169 0.00102682 1e-05
-0.0150211 0.00102747 1e-05
-0.0149254 0.00102812 1e-05
-0.0148296 0.00102877 1e-05
-0.0147338 0.00102943 1e-05
-0.0146381 0.00103009 1e-05
-0.0143692 0.00103195 1e-05
-0.0141002 0.00103382 1e-05
-0.0138313 0.0010357 1e-05
-0.0135624 0.0010376 1e-05
-0.0132934 0.00103951 1e-05
-0.0130353 0.00104136 1e-05
-0.0127771 0.00104321 1e-05
-0.0125189 0.00104506 1e-05
-0.0122607 0.00104691 1e-05
-0.0120025 0.00104876 1e-05
-0.0117547 0.00105054 1e-05
-0.0115068 0.00105232 1e-05
-0.0112589 0.00105409 1e-05
-0.0110111 0.00105586 1e-05
-0.0107632 0.00105762 1e-05
-0.0105252 0.00105931 1e-05
-0.0102873 0.00106099 1e-05
-0.0100493 0.00106267 1e-05
-0.00981133 0.00106433 1e-05
-0.00957337 0.00106599 1e-05
-0.00934491 0.00106757 1e-05
-0.00911645 0.00106915 1e-05
-0.00888799 0.00107071 1e-05
-0.00865954 0.00107227 1e-05
-0.00843108 0.00107382 1e-05
-0.00821175 0.0010753 1e-05
-0.00799242 0.00107676 1e-05
-0.00777309 0.00107822 1e-05
-0.00755376 0.00107967 1e-05
-0.00733443 0.00108111 1e-05
-0.00712387 0.00108248 1e-05
-0.0069133 0.00108384 1e-05
-0.00670273 0.00108519 1e-05
-0.00649216 0.00108653 1e-05
-0.0062816 0.00108786 1e-05
-0.00607944 0.00108913 1e-05
-0.00587729 0.00109039 1e-05
-0.00567514 0.00109163 1e-05
-0.00547298 0.00109287 1e-05
-0.00527083 0.00109409 1e-05
-0.00507675 0.00109526 1e-05
-0.00488267 0.00109641 1e-05
-0.0046886 0.00109755 1e-05
-0.00449452 0.00109868 1e-05
-0.00430044 0.0010998 1e-05
-0.00411412 0.00110086 1e-05
-0.0039278 0.0011019 1e-05
-0.00374147 0.00110294 1e-05
-0.00355515 0.00110396 1e-05
-0.00336883 0.00110497 1e-05
-0.00318995 0.00110592 1e-05
-0.00301107 0.00110686 1e-05
-0.00283219 0.00110779 1e-05
-0.00265331 0.0011087 1e-05
-0.00247443 0.00110959 1e-05
-0.0023027 0.00111043 1e-05
-0.00213097 0.00111126 1e-05
-0.00195924 0.00111206 1e-05
-0.0017875 0.00111285 1e-05
-0.00161577 0.00111362 1e-05
-0.0014509 0.00111433 1e-05
-0.00128603 0.00111503 1e-05
-0.00112116 0.0011157 1e-05
-0.000956289 0.00111634 1e-05
-0.000791418 0.00111696 1e-05
-0.000633135 0.00111752 1e-05
-0.000474851 0.00111807 1e-05
-0.000316567 0.00111858 1e-05
-0.000158283 0.00111907 1e-05
0 0.00111953 1e-05
0.000105677 0.00111983 1e-05
0.000211355 0.00112011 1e-05
0.000317032 0.00112039 1e-05
0.00042271 0.00112065 1e-05
0.000528387 0.00112091 1e-05
0.000634886 0.00112115 1e-05
0.000741385 0.0011214 1e-05
0.000847885 0.00112164 1e-05
0.000954384 0.00112187 1e-05
0.00106088 0.0011221 1e-05
0.00116821 0.00112232 1e-05
0.00127554 0.00112254 1e-05
0.00138286 0.00112276 1e-05
0.00149019 0.00112297 1e-05
0.00159752 0.00112317 1e-05
0.00170568 0.00112336 1e-05
0.00181384 0.00112356 1e-05
0.001922 0.00112374 1e-05
0.00203016 0.00112392 1e-05
0.00213833 0.0011241 1e-05
0.00224733 0.00112426 1e-05
0.00235633 0.00112442 1e-05
0.00246533 0.00112457 1e-05
0.00257434 0.00112472 1e-05
0.00268334 0.00112486 1e-05
0.00279319 0.00112499 1e-05
0.00290304 0.00112512 1e-05
0.00301289 0.00112524 1e-05
0.00312274 0.00112536 1e-05
0.00323259 0.00112547 1e-05
0.00334329 0.00112557 1e-05
0.003454 0.00112567 1e-05
0.0035647 0.00112576 1e-05
0.0036754 0.00112585 1e-05
0.00378611 0.00112593 1e-05
0.00389767 0.00112601 1e-05
0.00400924 0.00112608 1e-05
0.0041208 0.00112615 1e-05
0.00423237 0.00112621 1e-05
0.00434393 0.00112627 1e-05
0.00445636 0.00112632 1e-05
0.00456879 0.00112637 1e-05
0.00468123 0.00112642 1e-05
0.00479366 0.00112646 1e-05
0.00490609 0.00112649 1e-05
0.0050194 0.00112652 1e-05
0.0051327 0.00112655 1e-05
0.00524601 0.00112657 1e-05
0.00535931 0.00112659 1e-05
0.00547262 0.0011266 1e-05
0.00558681 0.00112661 1e-05
0.005701 0.00112662 1e-05
0.00581518 0.00112662 1e-05
0.00592937 0.00112661 1e-05
0.00604356 0.0011266 1e-05
0.00615863 0.00112659 1e-05
0.00627371 0.00112657 1e-05
0.00638878 0.00112655 1e-05
0.00650386 0.00112652 1e-05
0.00661893 0.00112649 1e-05
0.0067349 0.00112645 1e-05
0.00685087 0.00112641 1e-05
0.00696684 0.00112636 1e-05
0.00708281 0.00112631 1e-05
0.00719878 0.00112625 1e-05
0.00731565 0.00112619 1e-05
0.00743252 0.00112612 1e-05
0.00754939 0.00112604 1e-05
0.00766626 0.00112596 1e-05
0.00778313 0.00112588 1e-05
0.00790091 0.00112578 1e-05
0.00801869 0.00112568 1e-05
0.00813647 0.00112558 1e-05
0.00825425 0.00112547 1e-05
0.00837203 0.00112535 1e-05
0.00841395 0.0011253 1e-05
0.00845588 0.00112526 1e-05
0.0084978 0.00112521 1e-05
0.00853972 0.00112516 1e-05
0.00858093 0.00112512 1e-05
0.00865785 0.00112503 1e-05
0.00873476 0.00112493 1e-05
0.00881168 0.00112484 1e-05
0.0088886 0.00112474 1e-05
0.00896551 0.00112464 1e-05
0.00908513 0.00112447 1e-05
0.00920475 0.0011243 1e-05
0.00932437 0.00112412 1e-05
0.00944398 0.00112393 1e-05
0.0095636 0.00112373 1e-05
0.00968415 0.00112352 1e-05
0.0098047 0.0011233 1e-05
0.00992525 0.00112308 1e-05
0.0100458 0.00112284 1e-05
0.0101663 0.0011226 1e-05
0.0102878 0.00112233 1e-05
0.0104093 0.00112207 1e-05
0.0105308 0.0011218 1e-05
0.0106523 0.00112152 1e-05
0.0107738 0.00112122 1e-05
0.0108962 0.0011209 1e-05
0.0110186 0.00112058 1e-05
0.0111411 0.00112026 1e-05
0.0112635 0.00111992 1e-05
0.0113859 0.00111958 1e-05
0.0115093 0.00111919 1e-05
0.0116327 0.00111881 1e-05
0.0117561 0.00111843 1e-05
0.0118795 0.00111804 1e-05
0.0120028 0.00111764 1e-05
0.0121272 0.00111719 1e-05
0.0122515 0.00111675 1e-05
0.0123759 0.00111631 1e-05
0.0125002 0.00111586 1e-05
0.0126245 0.00111539 1e-05
0.0127498 0.00111488 1e-05
0.0128752 0.00111438 1e-05
0.0130005 0.00111388 1e-05
0.0131258 0.00111336 1e-05
0.0132511 0.00111283 1e-05
0.0133774 0.00111225 1e-05
0.0135036 0.00111169 1e-05
0.0136299 0.00111112 1e-05
0.0137562 0.00111054 1e-05
0.0138825 0.00110994 1e-05
0.0140098 0.00110929 1e-05
0.014137 0.00110866 1e-05
0.0142643 0.00110803 1e-05
0.0143915 0.00110738 1e-05
0.0145188 0.00110672 1e-05
0.0146471 0.001106 1e-05
0.0147753 0.0011053 1e-05
0.0149036 0.0011046 1e-05
0.0150318 0.00110388 1e-05
0.0151601 0.00110315 1e-05
0.0152893 0.00110236 1e-05
0.0154186 0.00110159 1e-05
0.0155478 0.00110082 1e-05
0.0156771 0.00110003 1e-05
0.0158063 0.00109923 1e-05
0.0159366 0.00109838 1e-05
0.0160668 0.00109754 1e-05
0.0161971 0.0010967 1e-05
0.0163274 0.00109585 1e-05
0.0164576 0.00109497 1e-05
0.0165889 0.00109406 1e-05
0.0167201 0.00109315 1e-05
0.0168514 0.00109224 1e-05
0.0169827 0.00109132 1e-05
0.0171139 0.00109038 1e-05
0.0172462 0.00108941 1e-05
0.0173785 0.00108844 1e-05
0.0175108 0.00108746 1e-05
0.0176431 0.00108648 1e-05
0.0177754 0.00108547 1e-05
0.0179087 0.00108444 1e-05
0.018042 0.00108341 1e-05
0.0181753 0.00108237 1e-05
0.0183087 0.00108132 1e-05
0.018442 0.00108025 1e-05
0.0185763 0.00107916 1e-05
0.0187107 0.00107807 1e-05
0.018845 0.00107697 1e-05
0.0189794 0.00107586 1e-05
0.0191137 0.00107474 1e-05
0.0192491 0.00107359 1e-05
0.0193845 0.00107244 1e-05
0.0195199 0.00107128 1e-05
0.0196553 0.00107011 1e-05
0.0197907 0.00106893 1e-05
0.0199272 0.00106774 1e-05
0.0200636 0.00106654 1e-05
0.0202001 0.00106532 1e-05
0.0203365 0.00106409 1e-05
0.020473 0.00106286 1e-05
0.0206105 0.00106162 1e-05
0.020748 0.00106037 1e-05
0.0208855 0.0010591 1e-05
0.021023 0.00105782 1e-05
0.0211606 0.00105654 1e-05
0.0212991 0.00105526 1e-05
0.0214377 0.00105395 1e-05
0.0215763 0.00105263 1e-05
0.0217149 0.0010513 1e-05
0.0218535 0.00104998 1e-05
0.0219931 0.00104866 1e-05
0.0221328 0.00104731 1e-05
0.0222724 0.00104594 1e-05
0.0224121 0.00104457 1e-05
0.0225517 0.00104321 1e-05
0.0226925 0.00104185 1e-05
0.0228332 0.00104046 1e-05
0.022974 0.00103905 1e-05
0.0231147 0.00103763 1e-05
0.0232555 0.00103623 1e-05
0.0233973 0.00103484 1e-05
0.0235391 0.00103341 1e-05
0.023681 0.00103196 1e-05
0.0238228 0.00103051 1e-05
0.0239647 0.00102907 1e-05
0.0241076 0.00102764 1e-05
0.0242505 0.00102618 1e-05
0.0243935 0.0010247 1e-05
0.0245364 0.00102321 1e-05
0.0246794 0.00102174 1e-05
0.0248234 0.00102028 1e-05
0.0249675 0.00101879 1e-05
0.0251115 0.00101728 1e-05
0.0252556 0.00101576 1e-05
0.0253996 0.00101426 1e-05
0.0255448 0.00101278 1e-05
0.02569 0.00101126 1e-05
0.0258351 0.00100972 1e-05
0.0259803 0.00100818 1e-05
0.0261255 0.00100665 1e-05
0.0262718 0.00100514 1e-05
0.0264181 0.00100359 1e-05
0.0265644 0.00100203 1e-05
0.0267107 0.00100046 1e-05
0.026857 0.000998911 1e-05
0.0270044 0.000997377 1e-05
0.0271519 0.000995805 1e-05
0.0272993 0.00099422 1e-05
0.0274468 0.000992635 1e-05
0.0275942 0.000991058 1e-05
0.0277428 0.000989501 1e-05
0.0278914 0.000987904 1e-05
0.0280399 0.0009863 1e-05
0.0281885 0.000984696 1e-05
0.0283371 0.000983097 1e-05
0.0284869 0.000981517 1e-05
0.0286366 0.000979897 1e-05
0.0287863 0.000978275 1e-05
0.0289361 0.000976653 1e-05
0.0290858 0.000975032 1e-05
0.0292367 0.00097343 1e-05
0.0293876 0.000971791 1e-05
0.0295385 0.000970152 1e-05
0.0296894 0.000968513 1e-05
0.0298403 0.000966875 1e-05
0.0299924 0.000965251 1e-05
0.0301445 0.000963595 1e-05
0.0302966 0.000961939 1e-05
0.0304486 0.000960284 1e-05
0.0306007 0.000958628 1e-05
0.030754 0.00095698 1e-05
0.0309072 0.000955308 1e-05
0.0310605 0.000953635 1e-05
0.0312138 0.000951961 1e-05
0.031367 0.000950287 1e-05
0.0315215 0.000948617 1e-05
0.0316759 0.000946926 1e-05
0.0318304 0.000945234 1e-05
0.0319848 0.000943542 1e-05
0.0321393 0.000941849 1e-05
0.0322949 0.000940152 1e-05
0.0324506 0.000938442 1e-05
0.0326062 0.00093673 1e-05
0.0327619 0.000935017 1e-05
0.0329175 0.000933302 1e-05
0.0330744 0.000931579 1e-05
0.0332313 0.000929846 1e-05
0.0333881 0.000928112 1e-05
[...]
POINT_DATA 11980
 FIELD attributes 1
U 3 11980 float
10.0017 	0.00517587 	0 10.0079 	0.0143537 	0 10.0142 	0.023157 	0 10.0205 	0.0319356 	0 10.0268 	0.0406896 	0 10.0382 	0.0482369 	0 10.0445 	0.051117 	0 10.053 	0.0538482 	0 10.0616 	0.0565753 	0 10.0701 	0.0592983 	0 10.0817 	0.0619445 	0 10.0862 	0.0623693 	0 10.0929 	0.063276 	0 10.0995 	0.0641824 	0 10.1062 	0.0650884 	0 10.114 	0.0661213 	0 10.1164 	0.0665294 	0 10.1198 	0.0670745 	0 10.1232 	0.0676194 	0 10.1265 	0.0681642 	0 10.1296 	0.0686712 	0 10.1314 	0.0689518 	0 10.1331 	0.0692324 	0 10.1348 	0.0695129 	0 10.1365 	0.0697934 	0 10.1384 	0.0700675 	0 10.1424 	0.0705946 	0 10.1467 	0.0711124 	0 10.1509 	0.0716301 	0 10.1552 	0.0721477 	0 10.16 	0.0726233 	0 10.1627 	0.0727522 	0 10.1663 	0.0728594 	0 10.1698 	0.0729666 	0 10.1733 	0.0730738 	0 10.1781 	0.0731446 	0 10.1795 	0.0729818 	0 10.1822 	0.07281 	0 10.1849 	0.0726383 	0 10.1876 	0.0724667 	0 10.1921 	0.0722995 	0 10.1924 	0.071977 	0 10.1943 	0.0716586 	0 10.1962 	0.0713403 	0 10.1982 	0.0710222 	0 10.2022 	0.0707404 	0 10.2019 	0.0703335 	0 10.2032 	0.0699346 	0 10.2044 	0.0695359 	0 10.2057 	0.0691372 	0 10.2093 	0.0687879 	0 10.2087 	0.0683289 	0 10.2095 	0.0678731 	0 10.2103 	0.0674174 	0 10.2111 	0.0669618 	0 10.2141 	0.0665541 	0 10.2136 	0.0660543 	0 10.214 	0.0655451 	0 10.2144 	0.0650359 	0 10.2148 	0.0645269 	0 10.217 	0.0640565 	0 10.217 	0.0635255 	0 10.2171 	0.0629593 	0 10.2172 	0.0623933 	0 10.2173 	0.0618272 	0 10.2185 	0.0612752 	0 10.2193 	0.0607114 	0 10.2192 	0.0600742 	0 10.2191 	0.0594372 	0 10.2189 	0.0588002 	0 10.2191 	0.0581368 	0 10.2209 	0.0575255 	0 10.2206 	0.0567878 	0 10.2203 	0.0560502 	0 10.22 	0.0553126 	0 10.2189 	0.054492 	0 10.2219 	0.0537944 	0 10.2215 	0.0528848 	0 10.2211 	0.0519736 	0 10.2205 	0.051056 	0 10.2181 	0.0499936 	0 10.2222 	0.0491083 	0 10.2219 	0.0479569 	0 10.2213 	0.0467868 	0 10.2204 	0.0456002 	0 10.2166 	0.044256 	0 10.2216 	0.0431341 	0 10.2213 	0.0415653 	0 10.2203 	0.039938 	0 10.2187 	0.0382827 	0 10.2132 	0.0364546 	0 10.2189 	0.035019 	0 10.2185 	0.0333289 	5.30966e-21 10.217 	0.0315914 	1.16063e-20 10.2145 	0.0298767 	1.60785e-20 10.2073 	0.0282701 	1.18866e-20 10.2135 	0.027544 	1.33545e-19 10.2131 	0.0266141 	1.46322e-19 10.2114 	0.0256436 	1.37494e-19 10.2088 	0.0246567 	1.11944e-19 10.2007 	0.0235616 	-2.39299e-20 10.2073 	0.0233674 	-6.34263e-20 10.2064 	0.0229155 	-7.23661e-20 10.2047 	0.0224348 	-7.78829e-20 10.2026 	0.0219287 	-7.94919e-20 10.1939 	0.0210521 	-2.37517e-20 10.2011 	0.0209014 	-2.14698e-20 10.1998 	0.0203887 	-1.44376e-20 10.1982 	0.0198632 	-7.23892e-21 10.1966 	0.0193377 	-4.07873e-23 10.1876 	0.0184476 	1.19789e-20 10.1951 	0.0182374 	-7.90558e-22 10.1936 	0.0175577 	-2.38516e-20 10.1921 	0.0168778 	-4.69147e-20 10.1905 	0.0161979 	-6.99798e-20 10.1815 	0.0152163 	-1.06285e-19 10.1889 	0.0150858 	-1.74891e-19 10.1873 	0.0143962 	-1.59499e-19 10.1856 	0.0137066 	-1.44099e-19 10.184 	0.0130168 	-1.28691e-19 10.1749 	0.0119457 	-3.54361e-20 10.1821 	0.011989 	6.93396e-20 10.1803 	0.0113876 	8.58625e-20 10.1785 	0.0107861 	1.02376e-19 10.1768 	0.0101844 	1.18881e-19 10.1677 	0.00906083 	4.44222e-20 10.1745 	0.00921807 	-9.7689e-20 10.1726 	0.00870853 	-1.04791e-19 10.1707 	0.00819887 	-1.11881e-19 10.1688 	0.00768909 	-1.18958e-19 10.1598 	0.00657938 	-4.46988e-22 10.1662 	0.0067389 	1.12063e-19 10.1641 	0.00629888 	1.00234e-19 10.162 	0.00585876 	8.8394e-20 10.16 	0.00541853 	7.65433e-20 10.1512 	0.00440487 	-2.89791e-20 10.157 	0.0044823 	-1.1437e-19 10.1547 	0.00409044 	-1.40795e-19 10.1524 	0.0036985 	-1.67216e-19 10.1502 	0.00330648 	-1.93633e-19 10.1416 	0.00244749 	-1.53666e-19 10.1467 	0.00239487 	-1.97632e-19 10.1442 	0.00202527 	-1.82547e-19 10.1417 	0.0016556 	-1.67459e-19 10.1392 	0.00128586 	-1.52368e-19 10.1309 	0.000593788 	-9.24046e-20 10.1351 	0.000396953 	-8.02179e-20 10.1323 	2.26881e-05 	-5.80845e-20 10.1295 	-0.000351626 	-3.59521e-20 10.1267 	-0.00072599 	-1.3821e-20 10.1189 	-0.00128049 	4.47261e-21 10.122 	-0.00160668 	0 10.1189 	-0.00200693 	0 10.1157 	-0.00240721 	0 10.1126 	-0.00280754 	0 10.1052 	-0.00327868 	0 10.107 	-0.00370395 	-1.61076e-20 10.1035 	-0.00414514 	-3.85244e-20 10.0999 	-0.00458636 	-6.09426e-20 10.0964 	-0.00502761 	-8.33621e-20 10.0896 	-0.00547693 	-1.08667e-19 10.0898 	-0.00597213 	-1.24715e-19 10.0858 	-0.00646491 	-1.25684e-19 10.0819 	-0.00695772 	-1.26648e-19 10.0779 	-0.00745056 	-1.27608e-19 10.0718 	-0.00793198 	-1.19264e-19 10.07 	-0.00847993 	-7.20266e-20 10.0656 	-0.00902971 	-3.80157e-20 10.0611 	-0.00957954 	-4.01434e-21 10.0566 	-0.0101294 	2.99774e-20 10.0515 	-0.010675 	5.98316e-20 10.0506 	-0.0108847 	6.29097e-20 10.0488 	-0.0110989 	6.30789e-20 10.047 	-0.0113131 	6.32471e-20 10.0452 	-0.0115273 	6.34145e-20 10.0435 	-0.0117379 	6.35781e-20 10.0402 	-0.0121309 	6.45509e-20 10.037 	-0.0125239 	6.55227e-20 10.0337 	-0.0129169 	6.64935e-20 10.0304 	-0.01331 	6.74634e-20 10.0197 	-0.0141075 	6.91741e-20 10.0211 	-0.0143895 	5.49002e-20 10.0154 	-0.0150487 	4.06253e-20 10.0098 	-0.0157081 	2.6349e-20 10.0041 	-0.0163676 	1.20713e-20 9.97907 	-0.0180375 	-7.17916e-22 9.99112 	-0.0178229 	-1.13367e-20 9.98483 	-0.0185277 	-2.48372e-20 9.97852 	-0.0192328 	-3.83362e-20 9.97221 	-0.019938 	-5.18337e-20 9.93428 	-0.0222001 	-6.53428e-20 9.95711 	-0.0215572 	-6.82393e-20 9.95014 	-0.0222988 	-7.71043e-20 9.94316 	-0.0230407 	-8.59651e-20 9.93617 	-0.0237829 	-9.48216e-20 9.88539 	-0.026539 	-1.13746e-19 9.91879 	-0.0255567 	-1.60643e-19 9.91112 	-0.026326 	-1.49886e-19 9.90345 	-0.0270957 	-1.39147e-19 9.89577 	-0.0278658 	-1.28426e-19 9.83257 	-0.030998 	-4.94146e-20 9.87599 	-0.029774 	-3.3146e-20 9.86762 	-0.0305619 	-2.35204e-20 9.85925 	-0.0313503 	-1.38935e-20 9.85086 	-0.0321391 	-4.26553e-21 9.77603 	-0.0355221 	0 9.82861 	-0.0341546 	0 9.81954 	-0.0349518 	0 9.81047 	-0.0357496 	0 9.80138 	-0.036548 	0 9.71606 	-0.0400556 	0 9.77666 	-0.0386349 	2.71684e-21 9.76691 	-0.0394325 	1.15865e-20 9.75714 	-0.0402309 	2.0455e-20 9.74736 	-0.04103 	2.93223e-20 9.65296 	-0.0445436 	4.93907e-20 9.72022 	-0.0431517 	1.77055e-19 9.7098 	-0.0439416 	1.80843e-19 9.69937 	-0.0447323 	1.84651e-19 9.68892 	-0.0455239 	1.88481e-19 9.58706 	-0.0489335 	4.96282e-20 9.65949 	-0.04764 	2.76273e-20 9.64844 	-0.0484145 	1.98261e-20 9.63737 	-0.0491898 	1.20235e-20 9.62577 	-0.0499791 	4.34911e-21 9.51872 	-0.0531753 	2.07104e-20 9.59021 	-0.0521375 	1.22547e-19 9.58306 	-0.0527936 	1.29505e-19 9.57139 	-0.053548 	1.31032e-19 9.54861 	-0.0545445 	1.18176e-19 9.44827 	-0.0572302 	4.61413e-21 9.51237 	-0.0565641 	-1.15874e-19 9.51402 	-0.0570385 	-1.48097e-19 9.50178 	-0.057767 	-1.6073e-19 9.46943 	-0.058861 	-1.50902e-19 9.37605 	-0.0610631 	-7.28786e-20 9.43274 	-0.0607292 	-2.08407e-19 9.44171 	-0.0611033 	-2.52752e-19 9.42895 	-0.0618004 	-2.55627e-19 9.38872 	-0.0628896 	-2.0253e-19 9.3024 	-0.0646365 	-5.55571e-20 9.35181 	-0.064592 	-2.95042e-20 9.36658 	-0.0649369 	-1.3042e-20 9.35334 	-0.0655975 	-4.33538e-21 9.30695 	-0.0665927 	0 9.22766 	-0.0679206 	0 9.27001 	-0.068122 	0 9.28909 	-0.0684981 	0 9.27542 	-0.0691207 	0 9.22456 	-0.0699512 	2.39446e-21 9.15215 	-0.0709034 	6.17632e-21 9.18776 	-0.071324 	2.59687e-21 9.20973 	-0.0717899 	0 9.19566 	-0.0723749 	0 9.14196 	-0.0729755 	2.90361e-21 9.07619 	-0.073582 	6.69062e-21 9.10546 	-0.074202 	3.11089e-21 9.12901 	-0.0748129 	9.99853e-22 9.11459 	-0.0753598 	8.63697e-21 9.05953 	-0.0756691 	2.86787e-20 9.00006 	-0.0759538 	5.00582e-20 9.02346 	-0.076758 	1.93074e-19 9.04684 	-0.0775632 	3.3609e-19 9.03111 	-0.078055 	3.36701e-19 8.97759 	-0.0780376 	1.93733e-19 8.92406 	-0.078021 	5.07648e-20 8.94206 	-0.0789966 	2.97307e-20 8.96004 	-0.0799735 	8.69752e-21 8.94449 	-0.0803886 	6.38805e-22 8.89647 	-0.0800895 	4.17991e-21 8.84844 	-0.0797907 	7.72112e-21 8.86156 	-0.080926 	4.38488e-21 8.87464 	-0.0820628 	1.04926e-21 8.85939 	-0.0823981 	6.34695e-22 8.81643 	-0.0818369 	-3.79843e-21 8.77347 	-0.0812754 	-8.23115e-21 8.7822 	-0.0825585 	-5.72785e-20 8.79089 	-0.0838434 	-1.06329e-19 8.77606 	-0.0840985 	-1.08346e-19 8.73771 	-0.0832957 	-6.31806e-20 8.69938 	-0.0824922 	-1.80132e-20 8.70422 	-0.0839109 	9.27489e-20 8.709 	-0.0853316 	2.03506e-19 8.69471 	-0.0855082 	2.14035e-19 8.66054 	-0.0844859 	1.21694e-19 8.62639 	-0.0834625 	2.93534e-20 8.6278 	-0.0850038 	1.62317e-20 8.62915 	-0.0865473 	3.10635e-21 8.6155 	-0.0866489 	-2.3177e-21 8.58508 	-0.0854305 	3.04267e-21 8.55469 	-0.0842107 	8.40623e-21 8.55312 	-0.0858608 	1.90572e-21 8.55147 	-0.0875134 	-4.60053e-21 8.53856 	-0.0875445 	-2.00173e-20 8.51149 	-0.0861547 	-7.57623e-20 8.48447 	-0.0847633 	-1.31512e-19 8.48032 	-0.0865079 	-2.76161e-19 8.47567 	-0.0881629 	-4.12268e-19 8.46301 	-0.0880935 	-3.88397e-19 8.43992 	-0.0866853 	-2.34995e-19 8.41588 	-0.0851482 	-6.9296e-20 8.40953 	-0.0869722 	6.84776e-20 8.40195 	-0.0884167 	1.78369e-19 8.38967 	-0.0883237 	1.75892e-19 8.37046 	-0.0870495 	1.00084e-19 8.34907 	-0.0853932 	6.4711e-22 8.34087 	-0.0872816 	-9.78481e-20 8.33134 	-0.0884769 	-1.65616e-19 8.31943 	-0.0883664 	-1.7565e-19 8.30322 	-0.0872746 	-1.28428e-19 8.28416 	-0.0855247 	-4.28691e-20 8.2744 	-0.0874622 	-3.06922e-20 8.26374 	-0.0883785 	-1.86281e-20 8.2522 	-0.0882557 	-6.67615e-21 8.23824 	-0.0873847 	1.01267e-20 8.22125 	-0.085566 	3.30714e-20 8.21021 	-0.0875389 	8.67139e-21 8.19908 	-0.0881571 	-3.95653e-21 8.18791 	-0.0880279 	-1.00939e-20 8.17559 	-0.0874069 	-9.67378e-21 8.1604 	-0.0855441 	7.29793e-21 8.14835 	-0.0875421 	-1.15421e-20 8.13727 	-0.0878523 	-2.05132e-20 8.12646 	-0.0877224 	-2.69115e-20 8.11529 	-0.087371 	-3.5453e-20 8.10168 	-0.0854856 	-5.88315e-20 8.08883 	-0.0874955 	5.91317e-20 8.07822 	-0.0874946 	6.86124e-20 8.06776 	-0.0873693 	7.13799e-20 8.0573 	-0.087244 	7.41477e-20 8.04513 	-0.085413 	-2.33533e-20 8.03198 	-0.0872318 	6.72589e-20 8.02185 	-0.0871164 	7.01947e-20 8.01173 	-0.087001 	7.31307e-20 8.00161 	-0.0868856 	7.60668e-20 7.99078 	-0.0853496 	9.71936e-21 7.97787 	-0.0868492 	3.64481e-22 7.96809 	-0.0867487 	2.55532e-22 7.9583 	-0.0866483 	1.46583e-22 7.94851 	-0.0865479 	3.76342e-23 7.93862 	-0.0853184 	1.45572e-20 7.92628 	-0.0865029 	0 7.91682 	-0.0864226 	0 7.90736 	-0.0863423 	0 7.89789 	-0.086262 	0 7.88865 	-0.0853421 	1.11681e-20 7.87709 	-0.0862236 	0 7.86795 	-0.0861686 	0 7.8588 	-0.0861135 	0 7.84965 	-0.0860586 	0 7.84081 	-0.0854446 	0 7.8302 	-0.0860414 	0 7.82136 	-0.0860165 	0 7.81252 	-0.0859917 	0 7.80367 	-0.0859669 	0 7.79507 	-0.0856495 	-4.04144e-21 7.78551 	-0.0859838 	0 7.77696 	-0.0859932 	0 7.76841 	-0.0860027 	0 7.75985 	-0.0860122 	0 7.75134 	-0.0859777 	-1.27024e-21 7.74964 	-0.0860354 	0 7.74811 	-0.0860441 	0 7.74657 	-0.0860529 	0 7.74504 	-0.0860616 	0 7.74351 	-0.0860703 	0 7.7366 	-0.0861105 	0 7.7297 	-0.0861507 	0 7.72279 	-0.086191 	0 7.71587 	-0.0862313 	0 7.7101 	-0.086112 	0 7.70128 	-0.0863398 	-9.12343e-21 7.69307 	-0.0864295 	-1.96384e-20 7.68486 	-0.0865192 	-3.01528e-20 7.67664 	-0.0866091 	-4.06669e-20 7.67088 	-0.0863566 	-5.11938e-20 7.6616 	-0.086786 	-4.7466e-20 7.65364 	-0.0869183 	-4.6848e-20 7.64568 	-0.0870507 	-4.6229e-20 7.6377 	-0.0871833 	-4.56089e-20 7.63346 	-0.0868039 	-4.98445e-20 7.62372 	-0.087426 	-3.85727e-20 7.616 	-0.0876026 	-2.72784e-20 7.60826 	-0.0877793 	-1.59834e-20 7.60052 	-0.0879562 	-4.68772e-21 7.5977 	-0.0874632 	0 7.58753 	-0.0882695 	-1.93164e-21 7.58002 	-0.0884914 	-7.03548e-21 7.5725 	-0.0887134 	-1.2139e-20 7.56497 	-0.0889355 	-1.72421e-20 7.56348 	-0.0883406 	-2.23711e-20 7.55289 	-0.0893234 	-5.57449e-20 7.54558 	-0.0895911 	-7.71386e-20 7.53825 	-0.0898589 	-9.85332e-20 7.53092 	-0.090127 	-1.19929e-19 7.53069 	-0.0894404 	-1.07385e-19 7.51969 	-0.0905927 	-8.10181e-20 7.51256 	-0.0909064 	-6.916e-20 7.50541 	-0.0912203 	-5.7298e-20 7.49863 	-0.0914833 	-4.73039e-20 7.4992 	-0.0907648 	-7.32822e-20 7.48828 	-0.0919792 	-8.80924e-20 7.48084 	-0.0924392 	-7.1978e-20 7.47385 	-0.0927988 	-5.17423e-20 7.46839 	-0.0929528 	-2.8304e-20 7.46891 	-0.0923139 	7.48201e-21 7.45824 	-0.093548 	1.18801e-20 7.4503 	-0.0941898 	9.14433e-21 7.44345 	-0.094595 	3.55519e-21 7.43924 	-0.0946487 	0 7.43968 	-0.094088 	0 7.42926 	-0.0953429 	0 7.42084 	-0.0961597 	0 7.41411 	-0.0966099 	0 7.41107 	-0.0965707 	0 7.41143 	-0.0960854 	0 7.40122 	-0.097361 	0 7.39233 	-0.0983456 	-7.25956e-21 7.38571 	-0.0988397 	-2.67454e-20 7.38378 	-0.0987136 	-4.62903e-20 7.38403 	-0.0983013 	-6.58645e-20 7.37403 	-0.0995967 	-4.5018e-20 7.36468 	-0.100742 	-2.32603e-20 7.35814 	-0.101279 	2.16176e-21 7.35725 	-0.101073 	9.89402e-21 7.3574 	-0.100732 	1.44309e-20 7.34758 	-0.102047 	4.92878e-20 7.33778 	-0.103347 	8.3846e-20 7.33139 	-0.103916 	1.04318e-19 7.33141 	-0.103645 	8.89527e-20 7.33143 	-0.103375 	7.35889e-20 7.32178 	-0.104709 	4.75235e-20 7.31208 	-0.106043 	2.14497e-20 7.30627 	-0.10663 	1.66456e-21 7.30616 	-0.106429 	1.15239e-20 7.30606 	-0.106227 	2.13829e-20 7.29656 	-0.10758 	8.98829e-20 7.287 	-0.108933 	1.58386e-19 7.28168 	-0.109555 	1.5902e-19 7.28144 	-0.109421 	9.10607e-20 7.2812 	-0.109288 	2.30996e-20 7.27183 	-0.110661 	1.39643e-20 7.26241 	-0.112033 	4.83255e-21 7.25753 	-0.11269 	5.05015e-21 7.25716 	-0.112625 	1.47355e-20 7.25678 	-0.11256 	2.4421e-20 7.24753 	-0.113953 	9.16887e-20 7.23822 	-0.115346 	1.5896e-19 7.23376 	-0.11604 	1.59624e-19 7.23324 	-0.116043 	9.2922e-20 7.23272 	-0.116046 	2.62181e-20 7.22357 	-0.117461 	1.72786e-20 7.21436 	-0.118877 	8.34267e-21 7.21029 	-0.119609 	0 7.20962 	-0.119681 	0 7.20894 	-0.119753 	0 7.19987 	-0.121193 	0 7.19108 	-0.122591 	0 7.18735 	-0.123342 	0 7.18621 	-0.123548 	0 7.18538 	-0.123689 	0 7.17637 	-0.125155 	0 7.16862 	-0.126456 	0 7.16482 	-0.127257 	0 7.16295 	-0.127649 	1.23931e-20 7.16195 	-0.12786 	3.02901e-20 7.153 	-0.129353 	1.09198e-20 7.14624 	-0.130566 	4.11743e-21 7.14234 	-0.131417 	1.35538e-20 7.13976 	-0.13199 	2.52158e-20 7.13858 	-0.13227 	3.92325e-20 7.12966 	-0.133793 	1.34488e-19 7.12384 	-0.134924 	1.73389e-19 7.11984 	-0.135826 	1.79246e-19 7.11655 	-0.136577 	1.51395e-19 7.11518 	-0.136926 	3.42199e-20 7.10628 	-0.13848 	1.53943e-19 7.10136 	-0.139537 	1.64209e-19 7.09724 	-0.14049 	1.51848e-19 7.09324 	-0.141414 	1.34847e-19 7.09168 	-0.141833 	4.01484e-20 7.08292 	-0.143401 	2.782e-20 7.07871 	-0.144406 	2.82074e-20 7.07447 	-0.145412 	2.85995e-20 7.07019 	-0.146418 	2.89963e-20 7.06799 	-0.146992 	6.51816e-20 7.06017 	-0.148477 	8.30936e-20 7.05582 	-0.149534 	8.07977e-20 7.05144 	-0.150591 	7.8487e-20 7.04702 	-0.151648 	7.61616e-20 7.04404 	-0.152402 	4.61607e-20 7.03712 	-0.153808 	1.17592e-20 7.03261 	-0.154915 	4.89821e-21 7.02807 	-0.156021 	-1.94986e-21 7.0235 	-0.157128 	-8.78504e-21 7.01976 	-0.158056 	-1.98636e-21 7.01369 	-0.159385 	-3.75937e-22 7.00902 	-0.160539 	-2.79022e-22 7.00431 	-0.161693 	-1.82139e-22 6.99957 	-0.162846 	-8.52883e-23 6.99508 	-0.163943 	0 6.99233 	-0.16457 	-6.39953e-21 6.99003 	-0.165142 	-1.46737e-20 6.98772 	-0.165713 	-2.29491e-20 6.98541 	-0.166284 	-3.12257e-20 6.98316 	-0.166836 	-3.92253e-20 6.98051 	-0.167467 	-4.75189e-20 6.97785 	-0.168097 	-5.5811e-20 6.97518 	-0.168727 	-6.41015e-20 6.9725 	-0.169358 	-7.23904e-20 6.97039 	-0.169936 	-8.01539e-20 6.9649 	-0.171231 	-6.3571e-20 6.95974 	-0.172472 	-4.64826e-20 6.95454 	-0.173713 	-2.93884e-20 6.94929 	-0.174955 	-1.22883e-20 6.94571 	-0.176047 	1.53807e-21 6.93932 	-0.177486 	8.04312e-21 6.93396 	-0.178771 	2.39987e-20 6.92857 	-0.180057 	3.99483e-20 6.92314 	-0.181342 	5.58919e-20 6.92048 	-0.182383 	7.68213e-20 6.91316 	-0.183965 	5.4419e-20 6.90761 	-0.185293 	3.7262e-20 6.90202 	-0.186622 	2.00987e-20 6.89638 	-0.18795 	2.92922e-21 6.89465 	-0.188939 	-2.56311e-21 6.88639 	-0.190662 	-5.95614e-20 6.88063 	-0.192031 	-6.28613e-20 6.87482 	-0.1934 	-6.61861e-20 6.86957 	-0.194719 	-6.29969e-20 6.86819 	-0.195703 	-1.65533e-20 6.85964 	-0.197469 	-6.36024e-20 6.85298 	-0.19897 	-7.87164e-20 6.84695 	-0.200377 	-8.23667e-20 6.84268 	-0.201631 	-6.47537e-20 6.84107 	-0.202657 	-1.50982e-20 6.83231 	-0.204452 	-6.49537e-20 6.82463 	-0.206094 	-9.50791e-20 6.81839 	-0.207536 	-9.90204e-20 6.81511 	-0.208723 	-6.22602e-20 6.81326 	-0.209786 	-5.78855e-21 6.8043 	-0.211608 	-2.55152e-21 6.79557 	-0.213391 	2.86554e-22 6.7891 	-0.214865 	1.21736e-23 6.78685 	-0.215982 	0 6.78477 	-0.217082 	0 6.77559 	-0.218931 	0 6.76635 	-0.22078 	0 6.76019 	-0.222271 	0 6.75791 	-0.223408 	0 6.75559 	-0.224545 	0 6.74619 	-0.226423 	0 6.73672 	-0.228301 	0 6.73077 	-0.22983 	4.14101e-21 6.72825 	-0.231006 	1.41742e-20 6.7257 	-0.232181 	2.42022e-20 6.71607 	-0.234089 	-4.40531e-20 6.70638 	-0.235996 	-1.12318e-19 6.70063 	-0.237564 	-1.13804e-19 6.69787 	-0.238775 	-4.76886e-20 6.69507 	-0.239986 	1.84266e-20 6.6852 	-0.241922 	5.88595e-21 6.67599 	-0.243798 	-2.94033e-21 6.67041 	-0.245373 	7.43095e-21 6.66672 	-0.246701 	5.67494e-21 6.66368 	-0.247943 	-3.39694e-22 6.65357 	-0.249901 	6.23446e-20 6.64554 	-0.251685 	9.50316e-20 6.63972 	-0.253282 	9.5822e-20 6.63482 	-0.254759 	7.55854e-20 6.63153 	-0.256026 	1.91702e-20 6.62117 	-0.258005 	2.52171e-20 6.61435 	-0.259688 	2.44394e-20 6.6083 	-0.261305 	2.21206e-20 6.60219 	-0.262922 	1.98102e-20 6.59861 	-0.264218 	1.45055e-20 6.58869 	-0.266159 	2.01323e-20 6.58245 	-0.267793 	1.08243e-20 6.57615 	-0.269428 	1.51826e-21 6.56981 	-0.271062 	-7.78591e-21 6.56495 	-0.272509 	-1.36416e-20 6.55631 	-0.274342 	-3.75087e-20 6.54984 	-0.275995 	-3.76672e-20 6.54331 	-0.277648 	-3.78038e-20 6.53673 	-0.279301 	-3.79186e-20 6.53054 	-0.2809 	-2.84701e-20 6.52723 	-0.281623 	-2.82439e-20 6.52455 	-0.282295 	-2.59109e-20 6.52186 	-0.282966 	-2.35785e-20 6.51917 	-0.283638 	-2.12466e-20 6.51654 	-0.28429 	-1.89824e-20 6.51218 	-0.285295 	-1.48657e-20 6.50781 	-0.2863 	-1.07478e-20 6.50341 	-0.287306 	-6.6285e-21 6.49899 	-0.288311 	-2.50791e-21 6.49522 	-0.289245 	1.51351e-21 6.48744 	-0.291015 	0 6.47998 	-0.292709 	0 6.47246 	-0.294403 	0 6.46488 	-0.296096 	0 6.45907 	-0.297601 	0 6.45033 	-0.299517 	0 6.44258 	-0.301229 	0 6.43478 	-0.30294 	0 6.42705 	-0.304638 	0 6.42202 	-0.306052 	0 6.41263 	-0.308043 	0 6.40423 	-0.309834 	0 6.39614 	-0.311558 	0 6.38935 	-0.313141 	2.72677e-21 6.38406 	-0.314565 	8.573e-21 6.37437 	-0.316561 	3.7326e-21 6.36493 	-0.318496 	-5.62833e-22 6.35654 	-0.320227 	-3.02713e-21 6.35075 	-0.321689 	-3.33924e-22 6.34521 	-0.32312 	2.94851e-21 6.3352 	-0.325117 	-2.05635e-20 6.32512 	-0.327114 	-4.40689e-20 6.317 	-0.328829 	-4.72864e-20 6.31125 	-0.330264 	-3.36733e-20 6.30545 	-0.3317 	-2.00591e-20 6.29513 	-0.333697 	-1.23631e-20 6.28473 	-0.335693 	-4.66927e-21 6.27687 	-0.337419 	-7.77763e-22 6.27085 	-0.338858 	-5.61386e-21 6.26478 	-0.340297 	-1.04481e-20 6.25415 	-0.342293 	-4.5877e-21 6.24423 	-0.344212 	-1.55888e-21 6.2365 	-0.345918 	-6.5163e-21 6.22955 	-0.34748 	-1.4177e-20 6.22321 	-0.348929 	-2.39641e-20 6.21225 	-0.350929 	-1.40742e-20 6.20348 	-0.35272 	-1.63485e-20 6.19545 	-0.354437 	-2.29108e-20 6.18736 	-0.356153 	-2.94829e-20 6.18067 	-0.357625 	-4.00751e-20 6.17008 	-0.359567 	-3.15452e-20 6.1618 	-0.361289 	-2.32025e-20 6.15346 	-0.36301 	-1.4867e-20 6.14506 	-0.364731 	-6.5387e-21 6.13713 	-0.366364 	-2.59379e-21 6.1317 	-0.367363 	-1.02809e-20 6.12711 	-0.368284 	-8.00053e-21 6.12249 	-0.369205 	-5.7124e-21 6.11786 	-0.370125 	-3.41651e-21 6.11337 	-0.371013 	-1.19389e-21 6.10947 	-0.371816 	7.00096e-22 6.10555 	-0.372619 	2.59962e-21 6.10162 	-0.373421 	4.50469e-21 6.09768 	-0.374224 	6.41531e-21 6.09387 	-0.374954 	2.29239e-21 6.08548 	-0.376743 	4.52129e-21 6.07691 	-0.37845 	1.23344e-20 6.06828 	-0.380156 	2.01415e-20 6.0596 	-0.381861 	2.79425e-20 6.05132 	-0.383337 	4.98162e-20 6.04286 	-0.385286 	9.12769e-20 6.03398 	-0.386973 	1.04409e-19 6.02504 	-0.38866 	1.17572e-19 6.01621 	-0.390267 	1.1731e-19 6.0078 	-0.391643 	7.79607e-20 5.99904 	-0.393585 	1.4713e-19 5.99007 	-0.395413 	1.88224e-19 5.98081 	-0.397077 	1.8876e-19 5.97201 	-0.3985 	1.13458e-19 5.96329 	-0.399856 	1.73355e-20 5.95421 	-0.40177 	1.13141e-20 5.94505 	-0.403683 	5.28336e-21 5.935