x,y,z,T
0.45,0.5,0,-1.13229e-30
1,0.65,0,-1.03076e+06
1,1.365,0,-3.68105e-101
1,2.1,0,6.13989
