x,y,z,T
0.45,0.5,0,-8.50964e-29
1,0.65,0,-2.16366e+06
1,1.365,0,-4.65228e-83
1,2.1,0,12.8956
