x,y,z,U_0,U_1,U_2
0.45,0.5,0,0,0,0
1,0.65,0,0,0,0
1,1.365,0,0,0,0
1,2.1,0,0,0,0
