/*--------------------------------*- C++ -*----------------------------------*\
| =========                 |                                                 |
| \\      /  F ield         | OpenFOAM: The Open Source CFD Toolbox           |
|  \\    /   O peration     | Version:  2112                                  |
|   \\  /    A nd           | Website:  www.openfoam.com                      |
|    \\/     M anipulation  |                                                 |
\*---------------------------------------------------------------------------*/
FoamFile
{
    version     2.0;
    format      ascii;
    arch        "LSB;label=32;scalar=64";
    class       volScalarField;
    location    "20";
    object      T;
}
// * * * * * * * * * * * * * * * * * * * * * * * * * * * * * * * * * * * * * //

dimensions      [0 0 0 0 0 0 0];

internalField   nonuniform List<scalar> 
73792
(
-5.65994e-46
-435.099
-4.64372e-07
-3.5801e-22
-9.87541e-08
-1.22379e-46
-829.201
-8.14716e-05
-157.691
-0.00286572
-1.05378e+07
-4.49883e-42
-5.06331e-41
-2.00003e-65
-8982.54
-2.89536e-36
-1.5649e-21
-1.82879e+07
-8.01825e-13
-37.0078
-0.0568657
-8.88283e+06
1.42631e-226
9.27112e-50
-4.67885e-05
-7.17965e-40
-1.13098e-71
-3.90901e-221
-8.49172e-97
0
-2.0357e-55
-7.73792e-11
-2.55744e-33
-0.000170396
-0.070965
-2.85055e-45
-8.87982e-103
-1.12872e-26
5.69001e-112
-1.7146e-46
-2.19316e-25
1.19411e-90
-29.4189
-44.2539
-1.44305e-31
-1.18268e-287
4.27407e-57
-86976.4
7.93515e-45
-1.97963e-13
1.65019e-64
-5.03322e-28
-8.32818e-39
-2.71624e-13
-8.03936e-99
-0.0410541
-3.46631e-22
-2.44632e+07
-5.78055e-25
-3.09494
-9.7719e-38
0
-3.44013e-18
-2.35628e-12
-494.689
-4504.26
-1.54407e-24
4.93886e-37
-16088.6
-2.24468e-16
-2.21612e-23
-0.323095
-8.59664e-33
4.30431e-216
-3.67785e+07
-5.1317e-37
-8.02193e-19
-7.50798e-39
-7.36954e-06
-3011.13
-2.60465e-05
1.57948e-55
-33525.5
-1.37078e-29
-2.36794e-22
-2494.86
-0.00524572
-2.89519e-29
-1.96013e-05
-440909
-4.70204e-21
-2.82645e-46
-4006.47
-5.87881
-9.12516e-32
-1.90339e-61
-1.56694e+06
-437679
2.48635e-170
-1.34391e-81
-1.75459e+07
-9.54434e-67
-2.95214e-101
-3.65658e-223
-2.67348e-30
-0.00139653
-5.57967e-16
-1.57668e-81
-1.14953e-77
-5.50264e-37
1.94162e-61
5.36921e-110
-3.29154e-07
0
-407.988
-3.90342e-91
-1.48145e-68
-0.241643
-1.55864e-44
-846.463
-4.30924e-09
-518335
-5.09694e-10
-7.84698e-72
-3.31136e-221
-7.33468e-28
-1.53462e-13
-12630.7
-0.81435
-0.0055933
-32269.3
-1.8915e+07
-8.08869e-30
-7.21006e-226
-9367.93
-8.58251e-25
-2.09865e-59
-7.75586e-12
-6.40071e-21
-3.70799e-31
-2.31071e-14
-2.39259e-52
-4.50713e-38
-1.55299e-60
-6.78985e-17
-5.93253e-26
-2.14503e-14
-1.10228e-16
-1.13141e-88
-2.30233e-64
-2.61781e-39
-1.63245e+06
-8.80078e+06
-1264.85
-38610.9
-0.0364085
-1.88242e-20
-2.33831e-09
-4.57425e-14
-3.59456e-39
4.15955e-52
-467448
-7.23939e-34
-5.53952e-37
-2.30644e-58
-3.387e+06
-8.47167e-78
-76554.6
-215.735
-2.99258e-37
-1.29219e-27
3.84294e-109
9.09156e-128
-2.71239e-13
1.57084e-104
-35.6448
-0.866858
-3181.99
-1.23916e-27
-2.2087e-78
-5.61178e-12
-1.2248e-37
-3.61939e-27
-1.07397e-37
-2.43484e-87
-0.0044702
-3.22878
-2.87205e-21
-7.15759e-53
-80853.1
-2.98461e-09
-4.38203e-39
-7.27041e-08
-6.10753e-70
-0.000978749
-4.81117e-49
-2.53764e-12
-1.14794e-262
1.05215e-64
-303955
0
2.23959e-299
-5.39839e-28
-5.48851e-67
-51144.8
4.7854e-36
5.0033e-35
-2.18686e-63
-16952.4
-0.409027
-6.27543e-64
-6.01218e-13
-1.85717e-65
-8.6789e-52
-2.54795e-32
-1.73948e-36
1.21889e-220
-5.01425e-17
-1.47472e-76
-8.94167e-14
-7.11644e-19
-1.83446e-96
-4.52917e-13
-282.524
-2.00818e-30
-9.91982e-25
-0.000266495
-2.65135e-65
1.60672e-43
-6.47144e-09
4.88685e-182
-1.34623e-24
-3.6822e-88
-0.00234971
-8.09611e+06
-1.69284e-219
-13.1351
-2554.6
-4.96393e-45
1.99523e-316
-5.6038e-25
2.37812e-196
-3.72978e-43
-6.94019e-19
1.90678e-41
-3.80101e+07
-0.0151678
-7.9968e-13
-3.45115e-19
-0.00124742
-8.55178e-23
-3.27021e-29
-1.24324e-24
-1868.52
-4.22463e-46
-1.98938e-61
-1.48565e-59
6.59179e-75
-1.86361e-39
-7.33515e-16
-1.60673e+06
-4.34761e-25
-6.9588
-3.08235e-16
-8.66442e-14
-1.10218e-32
-2.1381e-30
-4.07187e-97
2.67892e-201
-2.34466e+06
-310.946
5.53582e-36
-211683
-5.52749e-07
-3.72026e+07
-1.26706e-07
-14.5315
-2.29003e-37
-9.05009e-43
-2.73372e-34
-5.57023e-79
-9.18185e-08
-1.33602e+06
-1.09957e-17
-0.00143302
-5.48331e-18
-9.20883e-30
-1.19297e-78
1.88818e-127
-1.80903e-254
-0.735787
-2.7871e-46
4.45437e-30
-1.52894e-11
-3.012e-16
-9.04586e-39
-1.39215e-41
-2.75302e-13
-6.42806e+07
-221174
-8.87099e-39
-7.71453e-74
-2.27335e-07
-7.747e-33
-3.13395e-181
-1.01192e-26
-1.24333e-11
-1.30632e-12
-9.32633e-66
8.48132e-35
6.59819e-232
-4.07565e-79
-5.62611e-49
-4.66037e-37
2.58408e-33
-2.08578e-18
-3.36115e-34
2.81956e-199
-485610
-1.18765e-34
-118850
-3.67137e-78
2.59216e-22
-2.8986e+07
-2.98995e-23
-23716.4
-9.4265e-28
-2.07379e-06
-3.82264e-20
8.5818e-43
-8.14968e-46
-2.88294e-25
-2.75982e-33
-9.18867e-18
-1.02349e-36
-9.78201e-36
-1.02085e-46
-3.62899e-39
-3.3201e-66
-1.14148e+06
-1.01255e-05
-1.35337e-16
-2.27528e-19
-1281.83
7.45247e-139
-0.0954983
-8.11413e-18
-7.22078e-25
-2.42613e-36
-4.93472e-17
-4.85123e-21
-4.23675e-46
-6.83534e-64
-10646
-7.85961e-44
-2.14885e-63
-3.14123e-11
-1.20352e-33
-0.00592195
-2.15922e-22
-6.37352e-24
-5.56646e-16
-1.02346e-33
-53.5202
-4.0193e-14
-0.00620106
-37.7525
-2.50168e-72
-1.47273e-37
-4.57802
-1.7477e-27
5.52575e-87
-7.86135e-11
-39.0358
-1.49023e-17
-7.59645
-2.97661e-05
-2.66729e-07
7.36769e-104
-9.71772e-29
-9.36733e-29
-9.96373e-14
-1.58961e-14
-3.90223e-142
-5.02586e-21
-0.0239007
-0.0152653
4.77062e-65
-1.83992e-17
-2.8018e-36
-73.5655
-1.32278e-34
2.40852e-61
-5.85939e-20
-0.0232188
-2.58901e+06
-1.11918e-14
-3.56379e-172
-1.96158e-72
-1.83358e-30
-1.81292e-50
-3.00685e-72
-4.25231e-183
-2.67997e-68
-7.29859e-16
-2.34972e-22
-4.32016e-48
-1.55639e-77
-1.34974e-29
-3.03981e-06
-3.39804e-32
-7.05478e-23
-2.86249e-69
-1.23955e-21
-0.000111004
-59.5737
-0.000447378
-2.31499e-22
8.22824e-110
-1.89307e-73
-2.80801e-48
-1.68027e-82
-5.37234e-29
-2.22154e-88
-6.00309e-55
-2.50867e-26
-1.31531e-41
-5.9359e-38
-7.33707e-46
-4.79771e-27
-5.21697e-16
-5.14436e-27
-3.26764e-30
-5.45993e-24
-1.34489e-61
-38.3149
-1.30531e-138
-6.51228e-31
-8.36688e-21
-3.60782e+07
-2.09761e-08
-4.99949e-14
-4.1199e-26
-3.86902e-25
-7.22908e-08
-1.96789e-22
-2.41171e-21
-0.00479772
-1.00982e-22
7.97884e-73
1.07342e-173
-5536.77
-1.1873e-31
-1.88872e-91
-1.48518e-63
-72793.7
-1.45067e-10
-5.26384e-79
-431929
-3.67338e-51
-2.25158e-34
-5.52172e-76
-1436.48
-7.38055e-28
-1.85736e+07
-1.89622
4.42019e-94
-8.57989e-19
2.3875e-88
-4.69033e-06
-5.77022e-38
-1.15519e-51
-77.9445
-10196.2
-3.65345e-63
0
-2.89471e-27
-374.544
-3.26142e-09
-36599.9
-2.94672e-44
-2.43918e-32
-5.39494e-39
-1.53143e-36
3.33665e-72
-1002.08
8.01277e-266
-5.41068e-42
-6.5727e-05
-29.2429
-1.55408e-06
-1.49386e+07
-0.00023218
-8.33289e-09
-1494.49
-2290.34
-3.22207e-05
-48506.1
-2.05346e+07
-4.04296e-29
-2.72938e-11
5.44592e-99
-36.3405
-3.87596e-18
-6.97456e-06
-24.8453
-1.13655e-25
-3.96746e-51
-1.25067e-12
-1.05802e-151
-1.07767e-84
-46045.6
-0.763677
-0.00114755
-1.23937e-43
-0.0572636
-4.31686e-55
-5.56029e-18
-1.08713e-74
-6.15972e-16
3.1283e-173
-5.73713e-13
-9.54009e+06
-5.13038e-40
-1080.23
-5.943e-17
-4.02662e-06
-44908.3
-2.60752e-28
-8.15912e-42
-93.5632
-1.52093e-86
-1.12772e-29
1.19212e-63
-32720
-37625
-6.33084e-18
-1.34208e-10
-9.81337e-27
-7.55522e-19
-63629.2
-8.61619e-93
-1.24589e-72
-4306.22
-3.11898e+07
-1.33326e-90
-16305.6
-1.23359e-21
-1.13746e-28
8.01458e-81
1.77025e-104
-30136.9
-3.82118e-17
6.86339e-215
-6.15328e-297
-5.89718e-70
-4.92781e-22
-4.38843e-10
-4.56694e-78
-4.32518e-33
1.78261e-92
-8.00354e-06
-4.42953e-87
-8.25739e-20
-2429.25
-9.36803e-15
-6132.19
-1.8184e-25
-0.0866424
-1.07732e-24
-1.52875e-24
-2.78493e-18
-2.46664e-08
-0.000134827
-193.916
1.00964e-37
-7.12211e-21
-1.07573e-11
-2.63867e-22
-8.5348e-23
-7.9065e-05
-3.34624e-14
-1.3423e-24
-1.40196e-303
-13.1609
-0.00653135
-6.46954e-24
-2.06411e-213
-2.09813e-18
-9.86405e-09
-5.58712e-24
-3.95249e-47
-2.86846e-49
-9.53533e-06
-2.48958e-12
5.64414e-63
-3.0854
-1.92527e-22
-8.68107e-40
-110.342
-5.62128e-17
0
-367384
1.11564e-13
-1894.28
-1.5973e+07
-8.40006e-26
-3.57418e-23
-4.93865e-22
1.27297e-137
-1.2346e-64
-0.000324016
-2.31558e-36
-0.0721325
-8.98179e-31
-42152
-2.94398e+07
-3.2458e-06
-3.33659e-76
-1.04065e-11
-2.17388e-304
-1.91376e-28
-0.000261436
-6.55475e-298
-1.15647e-10
-44433.5
-0.0185136
-7.77192e-21
1.31701e-51
-5.73185e-39
-1.08933e-18
-1.55063e-15
8.08692e-32
-6.77311e-20
-5.2064e-17
-6.42986e-25
-1.97022e-215
-28667.7
-0.000221157
-3.34488e-118
-2.41361e-18
-1.57483
-7.86161e-30
-2.4728e-18
-6.00656e-24
-9.17398e-17
-2.47974e-36
-0.00295559
-0.000417483
-4.75793e-16
-5.94818e-33
-2.27999e-54
-1.85561e-66
-3.05918e-67
-7.17138e-32
-0.554846
-3.2155e-29
-1.01999e-13
-4.14928e+07
-9.21828e+06
-6.85609e-05
-3.21324e-15
-5.59798e-40
-2.13808e-05
-5.64748e-12
-5.49337e-33
-150222
-8.51723e-21
-161.225
-2984.25
-1.31174e-26
-7.56325e-47
-8.35834e-25
-2.23461e-06
-3.35589e-23
-0.0496408
-2.1262e-17
-8.2241e-05
-8.85466e-30
-5.32533e-64
-6.60638e-37
1.19397e-44
7.90467e-211
-5.12509
-2.18316e-35
-6.51339e-68
-1.10373e-09
-2.82199e-19
-1.21e-51
-8.19114e-50
-4.82868e-20
-0.00805816
-6.03152e-93
-6.22735e-24
-3.0932e-14
-6.44342
-0.00814053
-4.26529e-11
-1.22327e-44
-2.94899e-30
-1.55428e-06
9.83906e-170
-1.5116e-07
-3.00371e-34
-1.26115e-34
-0.000194273
-3.01247e+07
-7383.24
-7.07484e-56
-5.58398e-46
-2.28669e-54
-1.04055e-72
-7.24762e-27
-1.38083e-33
-8.8884e-45
-1.65648e-63
-4.76949e-52
-3.76727e-41
6.40532e-121
-3.19958e-05
-2.62478e-25
-2.11008e-66
-3.62052e-13
-6.24299e+06
-4.31e-212
-1.15219e+06
-101232
-9.51804e-31
-5.2564
-1.97715e-07
-1.88586e-10
-2.60685e-29
-8.48348e-05
-1.83569e-48
-5.48071e-49
-2.23585e-34
-7.10748e-24
-1.01961e-44
-6.87464e-11
-2.39792e-80
-8.42788e-31
-1.58046e+07
-1.68736e-43
-5.24817e-10
-8.86951e-36
-255350
-4.64751e-36
-1.31145e-16
-7.06387e-77
-1.7604e-26
0
-1.73925e-43
-1.24982e-198
-7.68366e-20
-1.48467e-47
7.11124e-201
-8.46022e-38
-1.39479e-137
-46768
-7.93287e-38
5.56516e-234
-2.12938e-17
5.41769e-141
-1.72379e+06
-5.41129e-13
1.17371e-162
-7.21487e-165
-3.08512
2.29411e-63
2.08797e-60
-2.19302e-26
-3.68333e-73
-7.42884e-36
-9.62902e-104
1.88123e-34
-7.82749e-86
-4.35638e-05
-3.53897e-16
1.25256e-235
-8.9441e-37
-5.02828e-38
-0.00268461
-1.63768e-53
-1.11777e-79
-1.87365e-14
6.86567e-64
-7.63822e-25
-319066
-7.29356e+06
-5.04808e-37
-1.08948e+06
-2.15878e-38
-0.845942
-6.34885e-30
-1.22102e-13
-7319.71
-2.48628e-37
-9.04435e-72
-6.98937e-39
-1.59226e+06
-1.94115e-33
5.22026e-74
-6.17696e-06
-3.10562e-84
-9.6017e-59
-2.62023e-32
-1.10387e-93
-5.58669e-31
-35.9117
-4.32373e-18
-2.56882e-29
-3.7159e-31
-5.97174e-87
-1.29919e-38
-4.04766e-24
-1612.26
-1.37454e+07
-0.00459862
-1.36184e-13
-3.02849e-77
-5.06909e-09
-7.28149e-33
-0.000360413
-3.82861e-22
-1.92145e-39
-2.33442e-22
-2.79671e-60
-2.24473e-21
-0.165745
-1.07537e-81
-3.6333e-24
-5.05329e+06
-3.18349e-07
-2.34507e-27
-2.97893e-29
-0.00621573
-27427.8
-6.18101e-19
-8.11529e-34
-2.25985e-15
1.24801e-256
-9.83261e-203
-2.82282e-12
-3.91868e-18
-3.10922e-35
-8.09721
-4.29715e-96
-5.14148e-28
-1.54644e-05
4.37678e-55
-0.00184235
-1.43863e+06
4.52243e-268
-9.53115e-23
-1.22597e-38
-8.09821e-287
-1.41381e-05
-1.83879e-07
9.31072e-66
0.000505219
-9.32747e-09
-3.87785e-22
-2.84391e-62
-84387.1
1.31089e-95
-1.18778e-35
1.83422e-30
-486.442
-4.32184e-18
-7.8103e-25
-2.17658e-66
2.14727e-86
-0.108474
-2.4451e-23
-4.68624e-26
-11603.9
-1.15387e-11
-1.27294e-18
-4.41642e-92
-1.38521e-33
-4.42633e+07
-6.36213e-48
-0.287368
-4.69245e-18
-4.13293e-58
-5.33152e-19
-1.08339e-19
-5.54233e-09
-6.23344e-91
-2.92057e-17
-1.91594e-06
-8.51413e-102
-1.44997e-78
-4.33822e-13
5.76583e-119
-6.23058e-87
-1.73473e-65
-2.39418
-5.13729e-36
-1.59189e-15
-6.65704e-28
2.85632e-86
-258.04
-2.27442e-08
-4.02665e-34
-0.119995
-7.48665e-08
-9.23639e-27
-0.000819141
-1.82585e-14
-2.05465e-93
-1.76252e-86
-7.17412e-06
-9.06335e+06
-0.00279358
-3.82621e-25
-3.20677e-38
-3.12978e-37
-5.73803e+06
-1.16138e-64
-3.57408e-06
-4.49885e-37
-0.000117662
-1.28515e-119
-9.88654e-38
-4.37963e-16
0
-5.74482e-262
-3.14781e-35
-4.7573e-64
-0.00289414
-3.19142e-67
-8.76958e-22
-2.35986e-16
-0.00247778
-245928
-2.87143e+06
-5.38142e-118
-347.815
-660550
-1.06466e-44
-0.00108532
1.34243e-44
-1.41785e-51
-7.6327e-22
-4.35896e+07
-0.00172368
-1.08344e-38
3.44164e-76
-0.0126034
-2.44189e-26
-3.44847e+06
-4.23254e-23
1.35106e-69
-8.60108e-36
-4.04897e-120
-6.83278e+07
-1.13082e-31
-2.66608e-08
-2.44692e-14
-7.81073e-36
-1.09883e-68
-3.28358e-16
-1.31032e-71
-2.28207e-15
-26.833
-208925
-0.436776
-8.45432e-50
-2.92573e-42
-2.90237e-31
-0.002407
-3.03657e-63
-2.16771e-32
-2.27459e-21
-4.27992e+07
-0.000501432
-9.85588e-42
-1.32409e-16
-6.75649e-22
-8.46272e-31
-1.58613e-05
-3.90255e-38
-5.29495e-45
-3.48749e-27
-4.58846e-260
-2.88479e-06
-6.45059e-163
-3.55978e+06
-38.8868
-4.29108e-23
-14.0589
-1294.76
-1.94876e-34
-10552.1
-9.59879e-11
-5.2107e-28
-8.60627e-32
-1.51786e-20
-9.99477e-23
1.48739e-300
-1.47746e-42
-386.163
-3.12661e-20
-15.7927
2.35325e-119
-2.09299e-36
0
-9.00451e-05
-1.40879e-06
-1.70944e-26
-1.11294e-62
1.58164e-61
-4.91079e-40
-1.97489e-98
-3.70948e-17
-147895
-1.88267e-53
-5.81498e-32
2.61096e-46
-0.157869
-30.7458
-53563.3
1.48508e-135
-4969.06
-2.63755e-11
-6.17936e-38
-4.35964e-23
-9.89766e-27
-3.5608e-08
-0.56954
-940.199
-2.37877e-49
-2.46383e-36
-0.00582028
-41.9278
-1.08797e-45
-7.62031e-306
-3.47561e-45
-0.650055
-2.3212e-51
-1.88176
-1.66932e-50
-1.02889e-19
-0.074023
-379651
-3.86474e-17
1.75765e-233
-6.23881e-10
-9.76736e-40
-7.03207e-36
-3.37528e+07
-4.15912e-37
-3.93344e-37
-7.42879
-5544.69
-1.49456e-34
-7.81953e-38
-0.0407878
-2.26374e-10
-3.85766
-1.30329e-37
-1.10061e-33
-3.15342e-23
-7.58747e-75
-4.20248e-23
-3.58777e-45
-6.05182e+07
-3.37605e-12
-1.24355e-05
-2.73551e-38
-1.25164e-82
-7.77828e-15
-6.59406e-17
-1.30038e-34
-1.43149e-28
-452.816
-7.42865e-17
-1.12406e-64
-1.21859e-23
-3.86275e+07
-1.19176e-35
-1.67611e-32
-0.0356575
-0.00456019
9.45121e-221
-39.2039
-88.8485
-2.05827e-16
2.369e-65
-2.61219e+07
-5.15698e-40
-2.93265e-32
-3.95808e+06
-7.12423e-28
-7.68812e+06
-2.93297e-12
-8.09984e-70
-7.74679e-51
1.31659e-78
-6.55376e-08
-6.46091e-93
-5.10754e-40
-3.2634e-44
-1.04568e-28
-0.000154226
-2.2325e-299
-2.80898e-26
-2.15466e-12
-2.08717e-29
-2.89859e-44
-2.35028e-53
-1.09947e-14
-2.05877e-38
2.86881e-235
-6409.93
-5.89709e+07
-503921
1.07346e-79
-4.012e-05
-8.2575e-72
1.22293e-59
-9.71835e-32
-9.88362e-21
-25.8242
-1.25183e-08
-3.07843e-65
-1.21357e-11
-0.0823702
-7.87431e-25
-6.20071e-09
-7.631e-17
-2.10636e-26
-8.41027e-15
-1.09526e-57
-2.98048e-100
-1.49251e+07
-1.29401e-93
2.66273e-71
-9.83583e-15
-2.85862e-08
-6.10972e-29
-1.37872e-87
-1.14666e-33
-6.99238e-19
-2.36116e-25
-1.18305e-263
-1.00495e-56
-1.02259e-228
-8.17549e-46
-4972.61
-3.85703e+07
-2.96113e-47
-1.16581e-12
-3.57705e-16
-35103.3
-5.34335e-10
-2.51774e-57
-7.33894e-19
-2.1644e-15
-3.39288e-35
-3.84531e-19
-4.04506e-32
-13.184
-1.35652e-49
2.62994e-63
-2.08452e-34
-8.67135e+06
-4.57666e-32
-1.54803e+06
-1.04387e-18
-0.00150782
-3.59033
-1.34909e-84
-2951.94
-35.6013
-2.16602e-65
8.28513e-50
-5.33939e+06
-1.60809e-07
-0.667882
-223.607
3.70249e-33
-66.5845
-3.15014e-223
-8.10914e-16
-1.02545e-11
-2.35077e+06
-5.08852e-40
-2.78839e-22
-7.94017e-266
-0.0172489
3.46778e-61
-1.14461e-136
-1.84672e-11
-16.6134
-1.906e-19
-2.00878e-28
-1.17132e+07
0
-3.66415e-16
-4.11952e-17
-1.30119e-08
-1.1304e-12
-1.20378e-33
-1.06315e-12
-2.12839e-75
-1.94716e-11
-1.00423e-05
-9.05359e-79
-1.1267e-15
-3.4118e-05
-1.42532e-08
-1.49128e-06
-3.76538e+06
-3.72002e-45
9.20675e-177
-4.09867e-40
-3.48218e-13
-1.86772e-30
-1.16492e-19
-6.30099e-13
-1.76442e+07
3.1935e-79
6.06564e-202
-0.0647349
-3.33956e-44
-1.31347e-62
-1.22494e+06
-2.39508e-33
-0.497543
-4.84429e-08
-4.79843e-34
-2.38138e-27
-3.80035e-252
-2.98577e-21
-7.02546e-06
-9.32154e-30
-3.98256e+07
-4.135e-26
-11529.7
-3.74921e-11
-1.96527e-66
-3926.17
-2.0876e-09
-1.84699e-19
-2.3615e-10
-2.45394e-32
-0.00439782
-6.51003e-20
-4.23929e-05
-3.33816e-14
-1.13263e+07
-1.34892e-39
-7.61892e-05
-2.05307e-06
-2.18193e-19
-1.28111e+07
-240.121
-0.0290112
-7.02173e-26
-1.35933e-27
-1.31128e-06
-2.74322e-51
1.2105e-158
-5.47012e-05
-3.40544e-27
-2.24857e-51
-2.87389e-18
-1.00815e-19
-3.49335e-12
-2.36865e-25
-3.88082e-85
-5.3733e+06
2.48022e-175
-1.63091e+07
-8.64832e-13
-2.19384e-05
-3.16223e-119
-4.69267e-20
-1.66301e-17
-1.23018e-11
-1.00675e-23
-2.54596e-17
-1.99563e-61
-4.6718e-08
-1.27869
-342319
-1.36825e-37
-1.10107e-39
-7.95547e-10
-4.87e-36
-3.23322e-37
1.05763e-227
-0.0238053
9.41613e-204
-146.86
-3.28249e-38
-1.84924e-12
-7.98637e-31
-3.5124e-22
9.61401e-86
4.26004e-90
3.89879e-87
-1.91087e-35
-2.81023e+07
-0.00012613
1.20136e-103
1.19607e-59
-2.10385e-20
-9.59287e-31
-2.25039e-22
-1.10443e-51
-1.55274e-32
9.256e-89
-7.13295e-83
-4.76562e-19
-5.99229e-82
1.03132e-08
-3.11539e-112
0
-1.74675e-49
-4.41535e-05
-0.100214
-2.63516e-87
6.25126e-37
-5.5208e-60
-0.102095
-8.91465e-99
-4.56387e-42
-34.8622
-0.732259
2.2648e-91
-1.45518e-11
-3.60806e-27
-1.90787e-19
-5.41663e-203
-3.91829e-07
1.54269e-134
-3.26963e-14
-1.32859e-98
-3.49831e-05
-4.3583e+07
-2.96768
-5.41518e-08
-7.80788e-58
-4.82968e-59
-1.18879e-19
-1.70084e-54
-3.26889e-12
-6.0054e+06
-1.89336e-08
-1.08488e-06
-1.12521e-74
-1.29427e-14
-5.69942e-54
-2.03425e-08
-3.86389e-80
-2.02619e-37
-1.58462e-40
-1.46602e-15
-3.08194e+07
-7.73451e-12
-0.00725806
-7.5617e-17
-0.0706352
-2.06945e-10
-2.42137e-170
-1.99544e-22
-8.7126e-103
-3.03803e-24
-1.83618e-11
-4.97532e-32
-0.0451029
-0.973229
-1.0699e-07
-3.627e-39
-34.9092
-0.00774672
-2.55373e-43
-2.14967e-177
-9.75361e-80
-4.41576e+07
-5.97581e-07
-3.36623e-34
-0.000122925
-2.05984e-58
-1.98051e-42
-0.00108945
-3.99142e-19
-1385.81
-4.13252e-05
-1.7281e-43
5.56829e-176
5.62811e-36
-2.81861e-28
4.30111e-85
-9.48185e-33
-1.90599e-20
-6.85925e-318
-1.85421e-15
-1.26833e+06
-1.53987e-33
-3.91174e-09
-7.88313e-19
-26.6249
-4.31059e-17
-2.77969e-97
-2.39943e-10
-2.38676e-05
-1.06282e-21
-0.00127174
1.86091e-144
-3.61978e-13
-4.76825e-205
-3.35834e+06
-8.74317e-16
-1.36345e-92
-8.08568e-110
-3.8173e-174
-6.38421e-24
-5.90597e-13
-166.477
-7.3878e-08
-4.35337e+07
-8.57631e-121
-5.10547e-52
-2.4073e-28
-38354.4
-1.72496e-44
-1.42379e+06
3.49643e-103
-4.22326e-44
-9.57417e-34
-1.26438
-0.000322964
-2.85971e-96
-6.34624e-89
-0.328062
-2.04487e-73
-2.9497e-24
-8.47848e-21
-0.231796
-3.99188e-35
-1.02088e-22
-0.000351187
-2.25807e-51
-8.20482e-26
-3.04647e-32
-8.64876e-37
-0.0117445
-1.16068e-14
-1.56695e+06
-1.0739e-50
-6.35004e-36
-1.36516e-43
2.01993e-92
-0.00138049
-7378.44
-4.8456e-23
-4.03865e-23
-3225.07
-3.15976e-31
-2.00379e-09
-4.34625e+07
-4.16941e-24
-1.57622e-14
-1.48906e-32
-9.74615e-32
-3.03583e-28
2.23776e-181
-1.22175e-14
-1.33649e-32
-0.33011
5.08696e-307
-5.6719e-22
-1.2673e-21
-8.11413e-28
-2.18891e-08
-2.81848e-07
2.43165e-19
-0.872063
6.23433e-177
-91100.7
-1.43336e-11
-2.37407e-21
-1.26962e-11
-4.7565e-18
-0.220254
-3.55781e-32
-2.52304e-17
-2.84826e+07
8.4928e-102
-2.20325e-26
-7.61684e-31
-51050.8
-1.96795e+07
-4.30504e-37
-9.06696e-24
-5.67496e-37
-9.20432e-26
-531.809
-1.19813e-37
-1.52527e-07
-3.21728e-27
-2.27957e-31
-9.75369e-35
-172.678
-8.13628e-21
-0.0263592
-2.86652e+06
-2.38125e-74
-1067.48
2.21718e-82
-875009
-1.09723e-24
-1.76431e-08
3.18248e-179
-7.916e-24
-3.40421e-71
9.78574e-108
-8.20149e-103
-1.509e-10
-7.33043e-55
-2.36372e-301
2.57983e-14
-398623
-4.26736e+07
-4.47319e-68
1.70925e-81
-4.46109e-05
-0.0250544
-1.44272e+06
-2.3574e-264
-1.38155e-26
-2.07559e-39
-7.44046e-51
-6.88179e-11
-2.34239e-43
-1.09516e+07
-284942
-7.71526e-49
-6.80659e-33
-7.45374e-06
-3.16568e-28
-3.74192e-99
-6.50627e-45
-258.658
-6.04111e-14
-4.26972e-27
-4.26266e-96
-7.66317e-39
-6592.36
-2.93075e-07
-1.15414e-30
-7.43076e-29
-9.04194
-4.08369e-67
7.90299e-68
1.11351e-37
-1.77936e-28
-1.02078e+07
-1.57119e-48
-10.6494
-1.36483e-38
-3.08781
-113.239
-9.25229e-43
-1.1294e-66
-1.39674e-10
-2.05775e+06
-3.40034e-95
-0.000243544
-3.37161e-15
-3.97929e-36
-4.67368e-19
-1.83854e-12
-4.72596e-49
-3.68149e+07
-4.68011e-30
-6.295e-25
-6.20646e-51
-1.57444e-26
-1.08118e-30
-0.0925391
-4.03444e-32
-6.90253e+06
-1.07989e-44
-6.5012e-21
-2.49826e-14
-1.33873
-2.74715e+06
-4.24668e-22
-1.16468e+07
-1.83758
-2.89176e+07
-0.424544
-4.61549e+07
-1.08385e+06
-0.094995
-3.68566e-26
-3.24689e-24
-4.62176e-16
-6.61385e-08
-8.15817e-15
-1.58344e-07
-8.63552e-34
-2.19449e-06
-1.62534e-91
-1.28518e-92
-3.65158e-93
-5.64231e-33
-9.54572e-46
-4.83494e-23
-66043.2
-1.15216e-13
-8.74577e-39
-2.03911e-06
-1.66305e-38
-1.6368e-30
-3.21946e-11
-2.69166e+06
-9.56264e-66
-1.89396e-15
-1.01832e-32
-3.68208e-30
-2.05021e-26
-4.20481e-34
-2.94958e-88
-1.60646e+06
-0.0788184
-3.83975e+07
8.63696e-126
-3.45137e-83
-6.66102e-26
-4.72409e-05
-4.4507e-06
-8.7287e-26
-2.67944e-16
-4.82656e-15
-7.17031e-53
-56493.1
-2.9294e-25
-39715
-1.7394e-151
-0.0112316
-6.43257e-31
-8042.12
-2.79774e-24
-8.76834e-08
-7.42006e-37
0
-2.54801e-15
-1.69494e+06
-9.55971e-32
-1.34813e-06
-0.00059081
-1.74956e-07
-1.66507e-34
-8.90488e-19
-1.06389e-30
-2.1296e-40
5.06577e-60
-3497.49
-3.31989e+06
-0.00335611
-7.15255e-33
7.05714e-126
-6.57163e-10
-12.992
-4.03875e-25
-61419.6
-4.80823e-24
-9.20738e-29
-1.77924e-24
-2.6794e-30
-2.13089e-102
-8.01898e-32
0
-113.156
-22.7158
-1.06273e-28
-2.36519e-11
-1.01119e-21
-108878
-9.27922e-36
-1.07405e-43
-1.6098e-32
-198.937
-4.39081e-11
-1.73459e-37
-0.270392
-5.27107e-33
-154669
1.40732e-62
-2.91834e-12
-2.44215e-267
-226955
-1.33217e-12
-3.08107e-29
-3.41805e-22
-1.62871e-95
-5.61152e-19
-6.78208e+06
-3.49502e+07
-8.74979e-16
-2.12188e-34
-9.96319e-11
-4.08657e-09
-1.13093e-269
-206875
-4.98095e-13
-8.9404e-96
-4997.59
-5.89676e-06
1.08643e-36
-178880
-9.00577
-3.99352e-41
-4.02015e-07
6.00218e-82
-8.45398e-12
-5.62348e-21
-6.38693e-43
-6.6309e-23
-8.08977e-23
-981689
-4.64275e-40
-9.10978e-06
-1.1769e-39
-7.55507e-24
-4.42065e-05
-1.91979e-35
7.56334e-46
-1.35551e-50
-919.433
9.33242e-108
-3.67355e-98
-1.70565e-14
-6.90013
-7.73371
-9.67143e-34
-32746.4
-8.87197e+06
-7.12225e-10
-0.102451
-1612.9
-2.42865e+06
-4.72375e-11
-4.97828e-05
-1.47426e-46
-4.34284e-99
-108.869
-5.79354e-37
-9.56699e-34
-3.78509e+07
-9.04393e-38
-5.27615e-45
-9.32448e-31
-2.021
-1.5253e+07
-6.78326e-45
-7.85009e-09
1.35145e-64
-3.7554e-52
-5.60616e-09
-6.9733e+07
-1.1507e-32
-4.49628e-28
-43.4939
-259.437
-2.08234e-75
-2.25503e-21
9.01171e-201
-1722.06
-1.97808e-32
-4.13529e-24
-3.35306e+07
-2.11228e-16
-6.00901e-14
-8.88963e-57
-9.78049
1.79454e-103
-4.28297e-192
-2.09304e-193
-1.76002e-21
8.64212e-54
-5.38341e-05
-9.27688e-27
-6.81696e-34
-2.6418e-57
-0.0156123
-4.00777e-55
2.44886e-225
-3863.17
-8.96334e-60
-1.03254e-30
-2.81161e-16
-719.188
-2.48105e-72
-2.1496e-36
-2.60735e-19
-0.506566
-4.44706e-38
-1.02926e-79
-3.80703e-30
-1.0136e-30
-1.13536e-97
-1.3881e-27
-7.05019
2.08294e-73
-1117.31
-4.87449e-90
-2.61623e-24
-3.19103e-114
-3.99383e-58
-1579.64
-1.51091e-13
-3.03928e-14
1.47199e-68
-4.82809e-25
-1.82909e-80
-0.00761202
-33981.6
-2.4809e-22
-8.97642e-98
-2.34372e-27
-8.70745e-25
-5.37467e-22
-3.3442e-67
-4.65447e-06
-4.38424e-17
-0.00314701
-2.76794e-37
9.77193e-64
-6.15243e-23
-4.37734e-22
-4.57878e-12
-8.91282e-103
-8.71717e-15
-0.000795985
-4.29915e-123
-6.319e+06
5.32498e-306
-8.25671e+06
-1.26322e-46
-1.48142e-213
-4.48165e-22
-2.79276e-39
-3.26434e-54
2.14819e-66
-0.00103002
-2.85182e-23
-4.9266e-35
-5.92487e-31
-1.08459e-62
-3.14237e-89
-3.55338e-33
0.00534864
-1.04176e-29
-3.36175e-25
-8.3299e-65
-1.98404e-60
-2.7429e-34
-53167.6
-635464
-751.431
-1.01619e-22
-4.22615e-32
-2.87014e-81
-4.62527e-53
-1.31496e-14
-9.8078
-8.05095e-13
-1.12436e-11
2.12117e-51
-5.47986e-05
1.89621e-269
-4.03405e-85
-1.7993e-150
-1.55196e-43
-1618.2
-3.15557e-48
6.83759e-53
-9.08887e-24
-1.89021e-19
-2.67993e+07
-3.74957e-07
-3.38407e-44
-1.33853e-82
-4.919e-06
-0.000110912
-3.45183e-21
-5.7094e-27
-7.62811e-27
-4.17686e-23
-833306
-0.55013
-10418.1
-5.93608e-06
-5.02943e-06
-2.33711e-41
1.40847e-219
-1.52518e-90
-24.4429
1.75433e-187
-1.74134e-40
-264441
-1.09346e-215
-3.59751e-10
-1.87153e-05
-1.16955e-05
-6.08368e-49
-1.78599e+07
-1.73494e-36
-0.00379518
-2.46255e-49
-14.0857
-5.89889e-42
-1.6986e-16
-2.05575e-20
-2.97429e-195
-42.0173
-1390.99
-9.08878
-3.28988e-94
-1.32687e-23
4.54402e-137
-7.12386e-13
-4.63917e-28
-1.48319e-14
-9.64419e-05
-2.52519e-13
-2.53989e-31
-2.47901e-122
-5.79849
-2.19912e-24
-424523
-4336.93
-0.0155719
-1.25836e-07
2.42633e-297
-1.40441e-12
-166420
-49847.2
-1.98301e-14
-2.73999e+07
-7429.06
-1.06246e+07
-8.84452e-20
-7.61099e-15
-2.50819e-32
2.12443e-185
-6.07411e-41
-1.42764e-25
-1.01924e+07
-2.01024e-34
-6.9178e-35
-1.6605e-18
-533329
-0.0827775
-1.59183e-19
-1.26371e+06
-3.7442e-07
-44631.6
-6.49595e-29
-1.29768e-55
-5.98181e-05
-4.84421e-23
-1.58653e-65
-258.839
-1.48515e-07
-0.0400384
-5.72393e-33
-188850
4.16078e-87
-3.97929e-140
-6.70806e-10
-1.35418e-17
-1.38459e-18
-2.09684e-07
-9.19046e-10
-9.26739e-81
-22713
-8.58138e-303
-1.71635e-108
-2.89163e-23
-1.01613
-1.95444e-17
-48836.8
-7.11256e-29
-2.8052e-12
-1.15245e-09
-2.98301e+07
-63294.9
-1.34996e-20
-0.0124876
-0.0362737
-8.71453e-22
-129.741
-1.20375e-62
-5.72067e-48
-3.66046e-82
-2.59677e-45
-6.96093e-145
-2.21054e-28
-2.64209e-31
-2.10603e-10
-3.37145e+07
-0.000978905
-6.91654e-20
-1.77675
-9.27222e-41
5.24065e-81
-1.45014e-18
-0.00211076
-1.40274e-18
-2.39319e-18
-1.37771e-17
-2.04928e-41
-5.35866e-09
5.41268e-28
-9.29165e-61
-2.02726e-21
-2.64677e-68
-2.11484e-14
-8.89387
4.30052e-54
-1.28912e-38
-3.88311e-62
-1.29691e-50
-1.97765e-12
-3.69225e-62
6.56755e-43
-1.33305e-45
-48.4894
-3.04609e+06
1.25208e-82
-3.78e-05
-2.61724e-41
4.81169e-221
-1.79681e-11
-6.97111e-47
-0.0236412
-4.33902e-77
-2.42569e-83
-2.50654e-32
-2.88199e-23
-0.00270332
-1.17764e+07
-0.000911245
1.63827e-203
-8.88908e-20
-18279.4
-2.72351e-07
-1.77775e-32
-7.507e-80
-9.62716e-10
0
-2.69301e-05
-8.5538e-05
-1.53606e-25
-3.10478e-32
-0.0997405
-1.36361e-30
-4.77271e-12
-2.00803e-18
-5.37847e-37
-1.16908e-38
-4.92774e-190
-2.53118e+07
-6.31413e-18
-0.00834825
1.30178e-120
-5.41274e-26
-0.000113584
-0.288467
-1.86835e-106
-2.83223e+07
-1.02618e-35
-3.43344e+07
-4.09074e+07
-1.85888e-17
-7.34319e+06
-0.170401
-5.35213e-31
-2.84151e-30
-0.0205515
-1.13765e-41
2.38176e-39
-1.64629e-14
-0.06025
-1.28111e-10
-1.29315e-09
-1.15679e+06
-2.90795e-17
-3.8415e-17
-8.8555e+06
-0.00609622
-9.59467e-16
-1.48499e-29
-1.18805e-62
-231.59
-0.412597
-6.5398e-47
-2.11798e-14
-3.02803e-08
-2.64065e-217
-2.14518e-29
-2.15522e-38
-1.093e-44
-5.09071e-81
-0.00205982
-0.00649394
-1.0956e-95
-3.8372e-36
-1.48558e-28
-1.93699e-22
-8.26187e-36
3.9017e-20
-1.1457e-15
-4.3269e-106
-3.43835e-71
-1.75507e-06
-3.39431e-14
9.2502e-272
-0.00359055
-4.76672e-92
-5.3108e-31
-1.08817
-2.00487e-12
-2.7563e-31
-1.24844e-32
-2.14694e-135
-7.26255e-64
-2.58177e-09
-1.21584e-18
-7.02652e-112
-9.58578e-71
-2.89045e-19
7.16768e-91
2.09231e-08
-5.7012e-21
-1.80382e-37
-2.84907e-18
-1.04319e-83
-1.12942e-29
-9.20875e-58
0.0893286
-6.51198e-20
-3.6715e-65
-4.73943e+06
-0.904542
-1.56269e-21
-6.98156e-27
-3.92561e-26
0
-1.51145e-18
-1.28974e-15
-1.54622
-0.002761
-2.63925e-08
-3.38348e-12
-6.02274e-82
-1.73457e-14
-1.76525e-143
-4.83494e-62
-3.6193e-13
-5.60071e-295
-9.41866e-07
-7.12099
-3.44892e-16
-3.42648e-17
-0.000340649
-351443
-1.12164e-14
-3.23719e+07
-1.26611e-28
-1.93105e-39
-1.4765e-18
0
-2.11372e-71
-1.48351e+07
-1.86043e-36
-9.32974e-42
-1.85822e-32
-0.00108402
-1.75966e-53
-4.66137e-11
-6.34962e-46
-1.28489e-15
-9.70445e-05
-1.64014
-2.51769e-24
-3.1939e-15
-3.10064e-13
4.66367e-73
-2.92409e-34
-7.71624e-54
-2.10119e-96
-2.18433e-18
-5.14978e-22
-8.02887e-06
-1.27487e-05
-1.49287e-13
-7.26118e-103
-0.0278531
-2.66097e-38
-1.23502e-16
-4.09983e-38
-2.27565e-07
-1.25417e-84
-3.12579e-32
-6.12321e-06
-4.26381e-06
-1.20239
-9.18134e-47
-0.00773641
-6.96609e-36
-3.96497e-08
2.10527e-87
-4.07395e-26
-844222
-3.99623e-64
-1.97222e-37
-3.44779e-24
-26.5708
-6.89216e-36
-4.24109e-84
-458811
-2.95045e-12
-1.21407e-43
-0.000269366
-8.55079e-65
-1.02614e-18
-51952
-3.21852e-25
-1.20988e-28
-6.73578e-41
-7.06719e-90
1.9896e-35
-1.21796e-07
-1.09273e-14
-3.3009e-56
-6.89215e+06
-3.49864e+06
-2.37243e+07
-6.44814e-85
-0.0128953
-18235.2
-5.49183e-37
-190.882
-6.34696e-31
4.53927e-40
-5.32104e-96
-1.20026e-29
4.35666e-89
-1.19415e-72
-9.19579e-63
-3.00365
-10837.8
-1.87315e-21
-1.75339e-35
-6.19184e-19
-3.13849e-26
5.96131e-28
2.43716e-77
-2.77079e-05
-4.21076e-25
-6.49786e-05
-1.81885e+07
-0.00655076
7.03405e-234
-2.31833e-09
-2.72117e-39
-8.97832e-34
-1.10137e-46
-5.68736e-11
-1.03932e-27
-4.6125e-226
-35843.7
-34035.5
-1.68247e-11
3.80585e-65
-5.26591e-18
-2.63254e-21
-0.000540232
-1.32034e-19
-2.24783e-09
-1545.17
-9.95624e-34
6.78412e-255
-2.54643e-65
-3.29172e-43
-1.86608e-23
-5.65095e-05
-7.24257e+06
-16115.7
1.92594e-63
-6.1221e-12
-0.00184104
-503.554
-2.66251e-101
-1.48414e-20
-3.5097e-268
7.94984e-10
-1.81264e-07
-1.25696e-78
-2.33214e-92
-319418
-1.52025e-35
-0.000353828
1.05422e-82
-153.781
-45.906
-1.896e-14
-0.0246358
-0.242539
-3.33897e-16
-2.58579e-17
-2.04241e-56
-6.61983e-50
-2.15965e-14
-2.78917e-22
-3.31036e-10
-1.38393e-12
-12.0152
-6.25446e-40
9.6269e-165
-9.8462e-220
-2.61541e+06
-0.000622215
-2.52633e-15
-2.44473e-07
-0.000296442
-3.26533e-136
-2.09834e-20
-4.30326e-37
-8.33764e-49
-5098.88
-5.34159e-43
-2.36333e-43
-1.96706e-28
-6.48217e-29
9.93894e-131
-1.5647e-17
-9.95269e-35
0
-6.24822e-37
-3.42035e-09
-4.26731e-18
-9.82026e-103
-3.51868e-11
-5.29477e-15
-6.38281
-1.07085e-38
-4.73058e-24
-30.0312
1.77065e-87
-4.70356e-58
-151.273
-0.000106902
-9.44072e-27
-89.23
-2.57476e-35
-3.11703e-149
-7.00548
-1.78646e-17
-2.16312e-15
-1.71098e-29
-1.42091e-14
-2.1683e-22
-1.44933e-05
-7.3811e-66
-3.9976e-48
-4.01287e-58
-9.52026
-4.82996e-05
-1.94864e+07
-42809.1
-1.24274e-216
6.58258e-12
-1.55936e-72
-2.82733e-30
-3.9553e-36
-8.32799e-23