/*--------------------------------*- C++ -*----------------------------------*\
| =========                 |                                                 |
| \\      /  F ield         | OpenFOAM: The Open Source CFD Toolbox           |
|  \\    /   O peration     | Version:  2112                                  |
|   \\  /    A nd           | Website:  www.openfoam.com                      |
|    \\/     M anipulation  |                                                 |
\*---------------------------------------------------------------------------*/
FoamFile
{
    version     2.0;
    format      ascii;
    arch        "LSB;label=32;scalar=64";
    class       volVectorField;
    location    "20";
    object      U;
}
// * * * * * * * * * * * * * * * * * * * * * * * * * * * * * * * * * * * * * //

dimensions      [0 1 -1 0 0 0 0];

internalField   uniform (0 0 0);

boundaryField
{
    Bottom
    {
        type            empty;
    }
    Window_large
    {
        type            flowRateInletVelocity;
        volumetricFlowRate uniform 0.004;
        value           uniform (0.002 -0 -0);
    }
    Window_small
    {
        type            flowRateInletVelocity;
        volumetricFlowRate uniform 0.004;
        value           uniform (0.008 -0 -0);
    }
    Walls
    {
        type            noSlip;
    }
    Door
    {
        type            zeroGradient;
    }
    Head_m
    {
        type            noSlip;
    }
    Mouth_m
    {
        type            flowRateInletVelocity;
        volumetricFlowRate csvFile;
        volumetricFlowRateCoeffs
        {
            nHeaderLine     1;
            refColumn       0;
            componentColumns 1(4);
            separator       ",";
            mergeSeparators 0;
            file            "0/male_office_sitting4_scenario_newResults.csv";
        }
        value           uniform (0 19749.5 0);
    }
    Head_f
    {
        type            noSlip;
    }
    Mouth_f
    {
        type            flowRateInletVelocity;
        volumetricFlowRate csvFile;
        volumetricFlowRateCoeffs
        {
            nHeaderLine     1;
            refColumn       0;
            componentColumns 1(4);
            separator       ",";
            mergeSeparators 0;
            file            "0/female_office_sitting4_scenario_newResults.csv";
        }
        value           uniform (0 -17310.5 0);
    }
    Top
    {
        type            empty;
    }
}


// ************************************************************************* //
