/*--------------------------------*- C++ -*----------------------------------*\
| =========                 |                                                 |
| \\      /  F ield         | OpenFOAM: The Open Source CFD Toolbox           |
|  \\    /   O peration     | Version:  2112                                  |
|   \\  /    A nd           | Website:  www.openfoam.com                      |
|    \\/     M anipulation  |                                                 |
\*---------------------------------------------------------------------------*/
FoamFile
{
    version     2.0;
    format      ascii;
    arch        "LSB;label=32;scalar=64";
    class       volScalarField;
    location    "383";
    object      k;
}
// * * * * * * * * * * * * * * * * * * * * * * * * * * * * * * * * * * * * * //

dimensions      [0 2 -2 0 0 0 0];

internalField   nonuniform List<scalar> 
12225
(
0.533
0.800744
0.971576
1.06041
1.09361
1.09036
1.07617
1.05082
1.02112
0.992245
0.965361
0.940327
0.918749
0.897953
0.88242
0.864774
0.856123
0.840204
0.376855
0.388506
0.401717
0.416673
0.430282
0.445895
0.460516
0.479637
0.497773
0.521639
0.538296
0.56052
0.574816
0.595382
0.607136
0.625932
0.634759
0.651575
0.372853
0.373076
0.371902
0.369358
0.365611
0.36039
0.355513
0.350354
0.346257
0.342775
0.339981
0.337684
0.335848
0.334569
0.333531
0.333064
0.332602
0.333046
0.373229
0.371498
0.369961
0.367292
0.364758
0.361016
0.357638
0.353276
0.349487
0.344961
0.341159
0.336758
0.333121
0.328998
0.325661
0.321994
0.319039
0.3159
0.373654
0.371438
0.369695
0.367347
0.365271
0.362549
0.360128
0.357116
0.354436
0.35123
0.348403
0.345103
0.342283
0.339073
0.336441
0.333421
0.331099
0.328294
0.37383
0.371524
0.369624
0.367471
0.365566
0.363351
0.361349
0.35905
0.356941
0.354554
0.352369
0.349932
0.347754
0.345355
0.343303
0.341018
0.339179
0.33703
0.373866
0.371569
0.369565
0.367502
0.365643
0.363679
0.361873
0.359945
0.35814
0.356208
0.354393
0.35246
0.350674
0.348783
0.347096
0.345297
0.343766
0.342069
0.373859
0.371581
0.369514
0.367482
0.365616
0.363759
0.362032
0.360289
0.358644
0.356964
0.355365
0.353728
0.352184
0.350605
0.349152
0.347657
0.346328
0.34492
0.373847
0.371578
0.369475
0.36745
0.365562
0.363739
0.36203
0.360366
0.35879
0.357237
0.355755
0.354284
0.352885
0.351493
0.350185
0.348879
0.347679
0.346457
0.373838
0.371573
0.369448
0.367421
0.365516
0.363696
0.361982
0.360339
0.358783
0.357281
0.355852
0.354462
0.353138
0.351847
0.350622
0.349425
0.348301
0.347192
0.373833
0.371567
0.36943
0.3674
0.365482
0.363657
0.361933
0.36029
0.358733
0.357245
0.355829
0.354471
0.353177
0.351932
0.350746
0.349603
0.348517
0.347468
0.37383
0.371562
0.369419
0.367385
0.365459
0.36363
0.361898
0.36025
0.358687
0.357197
0.355781
0.35443
0.353142
0.351911
0.350737
0.349613
0.34854
0.347514
0.373828
0.371559
0.36941
0.367373
0.365443
0.36361
0.361871
0.360219
0.358649
0.357156
0.355735
0.354382
0.353093
0.351864
0.350692
0.349573
0.348504
0.347485
0.373827
0.371556
0.369404
0.367363
0.365428
0.363592
0.361848
0.360191
0.358616
0.357118
0.355692
0.354335
0.353042
0.35181
0.350635
0.349515
0.348444
0.347424
0.373826
0.371553
0.369398
0.367355
0.365416
0.363576
0.361828
0.360168
0.358588
0.357086
0.355656
0.354294
0.352997
0.351761
0.350581
0.349457
0.348383
0.347359
0.373826
0.371551
0.369394
0.367348
0.365407
0.363564
0.361813
0.360149
0.358566
0.35706
0.355626
0.35426
0.352959
0.351719
0.350536
0.349408
0.348331
0.347303
0.373825
0.37155
0.369391
0.367344
0.3654
0.363555
0.361801
0.360134
0.358548
0.357039
0.355602
0.354234
0.35293
0.351686
0.3505
0.34937
0.348289
0.347259
0.373825
0.371549
0.36939
0.367341
0.365396
0.363549
0.361793
0.360124
0.358537
0.357025
0.355586
0.354216
0.352909
0.351664
0.350476
0.349342
0.34826
0.347228
0.373825
0.371549
0.36939
0.36734
0.365395
0.363547
0.36179
0.36012
0.358531
0.357019
0.355579
0.354206
0.352899
0.351652
0.350462
0.349328
0.348245
0.347212
0.373825
0.37155
0.369391
0.367342
0.365397
0.36355
0.361794
0.360124
0.358535
0.357023
0.355583
0.35421
0.352903
0.351656
0.350466
0.349332
0.348249
0.347215
0.373826
0.371551
0.369394
0.367346
0.365403
0.363557
0.361802
0.360133
0.358545
0.357034
0.355595
0.354223
0.352916
0.35167
0.350482
0.349348
0.348265
0.347232
0.373826
0.371553
0.369398
0.367353
0.365412
0.363567
0.361815
0.360148
0.358562
0.357053
0.355615
0.354244
0.352938
0.351692
0.350503
0.349368
0.348284
0.347249
0.373827
0.371558
0.369405
0.367365
0.365425
0.363583
0.361832
0.360167
0.358582
0.357072
0.35563
0.354256
0.352942
0.351687
0.350486
0.349339
0.348238
0.347187
0.373826
0.371565
0.369419
0.367383
0.365437
0.363591
0.36183
0.360158
0.358557
0.357029
0.355559
0.354151
0.352793
0.351491
0.350234
0.34903
0.347863
0.346748
0.373813
0.371578
0.369439
0.367393
0.365397
0.363507
0.361691
0.359971
0.358299
0.356692
0.355113
0.353588
0.352089
0.350647
0.34923
0.347871
0.346534
0.34526
0.373737
0.371563
0.36943
0.367312
0.365129
0.363117
0.361153
0.359298
0.35742
0.355588
0.353724
0.35191
0.350088
0.34833
0.346577
0.344899
0.343229
0.341649
0.373342
0.371475
0.369381
0.367118
0.364553
0.362302
0.359942
0.357741
0.355346
0.353013
0.350535
0.348135
0.345686
0.343339
0.341006
0.338785
0.336605
0.334549
0.372445
0.371568
0.369989
0.367918
0.36489
0.362277
0.359067
0.356242
0.352912
0.349925
0.346694
0.343816
0.341001
0.338478
0.336278
0.334187
0.332564
0.330893
0.373965
0.37768
0.38153
0.386862
0.391242
0.39687
0.401521
0.407764
0.413408
0.420618
0.427621
0.436013
0.444409
0.453841
0.463447
0.472078
0.481258
0.489226
0.454574
0.608517
0.726907
0.813338
0.871293
0.909569
0.930249
0.942179
0.943093
0.941047
0.936129
0.928094
0.91902
0.909329
0.899633
0.890119
0.88085
0.871951
4.187e-06
3.31383e-05
8.55165e-05
0.000166224
0.000265658
0.000383357
0.000582259
0.000911903
0.00140624
0.00205005
0.00274623
0.00345462
0.00411546
0.00469882
0.00519717
0.00560064
0.00590765
0.0061174
0.00624118
0.00623248
0.00620295
0.00605702
0.00583982
0.00544679
0.00488939
0.00415238
0.0032508
0.00224505
0.00127389
0.000539554
0.000155803
4.38661e-05
3.50179e-05
3.87295e-05
4.50617e-05
5.32461e-05
6.12877e-05
6.69011e-05
8.59463e-05
0.000138748
0.00035993
0.000802571
0.00142623
0.00194537
0.00222736
0.00220453
0.00207177
0.00185092
0.00161996
0.0014539
0.00150313
0.00188904
0.00229189
0.00254551
0.00307455
0.0042514
0.0100668
0.0263337
0.0452769
0.0637811
0.0811793
0.0974915
0.11278
0.127263
0.141082
0.154476
0.167297
0.179306
0.190798
0.201708
0.212204
0.222281
0.23204
0.241502
0.250719
0.259713
0.268509
0.277135
0.285598
0.29392
0.3021
0.310154
0.318079
0.325883
0.333561
0.341117
0.348545
0.355844
0.363007
0.370029
0.376902
0.383618
0.390166
0.396535
0.402715
0.408695
0.414468
0.420032
0.425395
0.430581
0.435643
0.440563
0.445287
0.449844
0.454223
0.458421
0.462435
0.466259
0.469891
0.473326
0.476562
0.479594
0.482421
0.485039
0.487447
0.489643
0.491625
0.493392
0.494944
0.496282
0.497403
0.49831
0.499001
0.49948
0.499746
0.499798
0.499702
0.499491
0.498927
0.498215
0.497161
0.495908
0.494416
0.492748
0.490909
0.488886
0.486717
0.484313
0.481698
0.478939
0.475994
0.472893
0.469629
0.466212
0.462648
0.458953
0.455106
0.451172
0.447047
0.442876
0.438505
0.434119
0.429528
0.424958
0.420184
0.415471
0.410551
0.405734
0.400708
0.395803
0.390702
0.385716
0.380563
0.375477
0.370314
0.365158
0.359988
0.354819
0.349653
0.344492
0.339331
0.334162
0.328973
0.32374
0.31843
0.312994
0.307514
0.30341
0.299646
0.282699
2.04986e-05
1.38123e-05
4.6988e-05
0.000121995
0.000318506
0.000877047
0.0021114
0.00396161
0.00620689
0.00853302
0.0107104
0.0126323
0.0141186
0.0151505
0.0157844
0.0160247
0.0159588
0.0157622
0.0153366
0.0147662
0.0139913
0.0130133
0.0118586
0.010519
0.00907533
0.00749154
0.00597031
0.00453837
0.00320937
0.00207742
0.00123145
0.000687151
0.000379697
0.000216998
0.000135646
9.91584e-05
8.38143e-05
8.0016e-05
0.000398268
0.000716581
0.00235763
0.00494752
0.00817545
0.0105251
0.0115737
0.0114359
0.0108651
0.00942317
0.00838741
0.00870104
0.0105511
0.0146351
0.0187025
0.0258292
0.0364262
0.0512635
0.0724291
0.0981852
0.122958
0.149405
0.175483
0.20223
0.228861
0.255563
0.281918
0.30783
0.333051
0.357516
0.381191
0.404069
0.426202
0.447648
0.468484
0.488791
0.508631
0.528075
0.547149
0.565932
0.584444
0.602727
0.620797
0.638678
0.656379
0.673911
0.691278
0.708483
0.725524
0.7424
0.759103
0.775627
0.791961
0.808091
0.824001
0.839673
0.855083
0.870206
0.885012
0.899469
0.913542
0.927193
0.940399
0.953269
0.9659
0.978232
0.990289
1.00204
1.01349
1.02462
1.03542
1.04587
1.05598
1.06573
1.07512
1.08412
1.09275
1.10098
1.10881
1.11624
1.12326
1.12987
1.13606
1.14184
1.14719
1.15212
1.15664
1.16074
1.16445
1.16778
1.17074
1.17337
1.17572
1.17766
1.17905
1.18013
1.18057
1.18093
1.181
1.18065
1.17971
1.17843
1.17677
1.17474
1.17235
1.16961
1.16652
1.16309
1.15936
1.15528
1.15093
1.14623
1.14129
1.136
1.1305
1.12468
1.11868
1.1124
1.106
1.09933
1.09259
1.08562
1.07858
1.07134
1.06404
1.05657
1.049
1.04134
1.03361
1.02581
1.01797
1.01009
1.00217
0.994192
0.986137
0.977954
0.969574
0.960878
0.951659
0.941772
0.929126
0.899884
2.46333e-05
1.13796e-05
5.06837e-05
0.000208041
0.000885653
0.00218276
0.0047868
0.00784147
0.0109456
0.0138286
0.0163224
0.0183391
0.0198561
0.020904
0.021521
0.0217909
0.0217512
0.0215855
0.0211904
0.0206481
0.0199694
0.0191586
0.0182028
0.0170867
0.0157765
0.0143028
0.0125491
0.0106074
0.008603
0.00661798
0.00482843
0.0032132
0.00205566
0.00132221
0.000873118
0.00063924
0.000504234
0.000388238
0.00134643
0.00248578
0.00710874
0.0139447
0.0198533
0.0237945
0.0256929
0.026486
0.0269166
0.0276273
0.0304687
0.0380788
0.0514065
0.0690973
0.0854992
0.107679
0.132235
0.160281
0.190755
0.222985
0.258055
0.294683
0.332299
0.370401
0.408267
0.445477
0.481592
0.516401
0.549792
0.581782
0.612453
0.641938
0.670382
0.697924
0.724706
0.750836
0.776406
0.801507
0.826204
0.850554
0.874596
0.898363
0.921876
0.945155
0.96821
0.991048
1.01367
1.03608
1.05828
1.08025
1.102
1.12351
1.14477
1.16577
1.18651
1.20696
1.22712
1.24697
1.26651
1.28572
1.30459
1.32314
1.34135
1.35924
1.37677
1.39392
1.41067
1.42702
1.44294
1.45842
1.47345
1.48801
1.50208
1.51567
1.52875
1.54132
1.55335
1.56486
1.57581
1.58622
1.59606
1.60535
1.61406
1.6222
1.62976
1.63675
1.64316
1.649
1.65427
1.65897
1.66311
1.66668
1.6697
1.67213
1.67395
1.6752
1.67575
1.67597
1.67566
1.67473
1.67323
1.67121
1.66867
1.66561
1.66205
1.65801
1.65348
1.64848
1.64304
1.63713
1.63083
1.62405
1.61692
1.60934
1.60144
1.59311
1.5845
1.57551
1.56631
1.55677
1.54707
1.53707
1.52694
1.51656
1.50604
1.49532
1.48445
1.47344
1.46231
1.4511
1.43981
1.42846
1.41707
1.40561
1.39409
1.38247
1.3707
1.3587
1.34631
1.33335
1.31779
1.29071
2.48614e-05
2.73164e-05
0.000184294
0.000768156
0.00252691
0.00599615
0.0104496
0.0148568
0.0188102
0.0220808
0.0245869
0.0263489
0.0274188
0.0279619
0.0280145
0.0278622
0.0274778
0.0268961
0.0262036
0.0254299
0.0245913
0.0236866
0.0227069
0.0216391
0.0204526
0.0191274
0.017622
0.0159083
0.0139925
0.0119482
0.00985488
0.00788869
0.00599411
0.00441687
0.00315147
0.00238318
0.00195672
0.00174194
0.00500784
0.0107248
0.0234428
0.0348532
0.0428502
0.0476341
0.0500825
0.0535864
0.0626232
0.0774283
0.093516
0.110115
0.127877
0.146225
0.168317
0.196515
0.227585
0.263856
0.3024
0.343511
0.385885
0.428881
0.471861
0.514418
0.556173
0.596902
0.636435
0.674704
0.711702
0.747489
0.782152
0.815796
0.84855
0.880516
0.911801
0.942495
0.972682
1.00243
1.03179
1.0608
1.08951
1.11793
1.14608
1.17398
1.20163
1.22903
1.2562
1.28311
1.30978
1.33619
1.36234
1.38822
1.41381
1.43911
1.46411
1.48879
1.51315
1.53718
1.56086
1.58418
1.60714
1.62972
1.6519
1.67367
1.69499
1.71584
1.73621
1.75608
1.77542
1.79422
1.81246
1.83012
1.84719
1.86366
1.8795
1.89471
1.90927
1.92317
1.9364
1.94895
1.96081
1.97198
1.98245
1.99221
2.00126
2.00961
2.01724
2.02416
2.03036
2.03586
2.04064
2.0447
2.04806
2.0507
2.05263
2.05378
2.05421
2.05413
2.05333
2.05184
2.04967
2.04686
2.04341
2.03934
2.03465
2.02936
2.02349
2.01704
2.01004
2.00249
1.99442
1.98583
1.97676
1.96719
1.95718
1.9467
1.93583
1.92455
1.91294
1.90097
1.88873
1.87619
1.86343
1.8504
1.83717
1.82371
1.81006
1.79624
1.78227
1.76818
1.75401
1.73977
1.72547
1.71114
1.69675
1.68232
1.66783
1.65323
1.63843
1.62331
1.60612
1.58104
3.29028e-05
9.18696e-05
0.000624792
0.00244386
0.00681513
0.013284
0.0194607
0.024647
0.0285558
0.0311991
0.032769
0.0335187
0.0336074
0.0333911
0.0328582
0.0321065
0.0312512
0.0303419
0.0294121
0.0284794
0.0275491
0.0266128
0.025656
0.0246597
0.023596
0.0224374
0.021152
0.0197068
0.0180665
0.0162304
0.0142443
0.0122284
0.010257
0.00845343
0.00711802
0.00567919
0.00590875
0.00882745
0.0190232
0.0393695
0.0579709
0.0717126
0.0811155
0.0888815
0.0983429
0.109875
0.122683
0.135846
0.150205
0.166915
0.188524
0.214917
0.246679
0.283191
0.322689
0.364849
0.408046
0.452163
0.496472
0.540758
0.584778
0.628383
0.671416
0.713749
0.755288
0.795973
0.835774
0.874712
0.912822
0.950151
0.986776
1.02276
1.05819
1.09311
1.12758
1.16166
1.19538
1.22878
1.26187
1.29467
1.32721
1.35947
1.39147
1.42321
1.45468
1.48588
1.51681
1.54744
1.57778
1.60782
1.63754
1.66693
1.69597
1.72467
1.753
1.78095
1.80851
1.83565
1.86237
1.88863
1.91442
1.93971
1.96447
1.98869
2.01234
2.0354
2.05784
2.07964
2.10078
2.12125
2.14102
2.16007
2.17839
2.19597
2.21279
2.22883
2.24408
2.25853
2.27218
2.28501
2.29701
2.30818
2.31852
2.32803
2.33669
2.34451
2.35148
2.35762
2.36291
2.36736
2.37097
2.37375
2.3757
2.3767
2.37699
2.37654
2.37528
2.37323
2.37039
2.36681
2.36248
2.35742
2.35165
2.34518
2.33803
2.33021
2.32175
2.31266
2.30296
2.29266
2.2818
2.27038
2.25844
2.24596
2.23302
2.21962
2.20581
2.1916
2.17706
2.16218
2.14702
2.13157
2.11587
2.09991
2.08373
2.06735
2.0508
2.0341
2.01731
2.00044
1.98353
1.96658
1.94962
1.93267
1.91573
1.89882
1.88187
1.86482
1.84621
1.82182
2.75564e-05
0.000281821
0.00186974
0.00653772
0.0156826
0.0240948
0.0304716
0.0347008
0.0371313
0.0382742
0.0385383
0.0382982
0.0376512
0.0367019
0.0356124
0.0344617
0.0333079
0.0321894
0.0311276
0.0301294
0.0291896
0.0282919
0.0274154
0.0265342
0.0256164
0.0246277
0.0235369
0.0223178
0.0209489
0.0194124
0.0177294
0.0159748
0.0142386
0.0122376
0.0113063
0.0123425
0.0184947
0.0353579
0.0611134
0.0853018
0.104227
0.117344
0.126532
0.134399
0.142668
0.152096
0.163297
0.177739
0.197608
0.222367
0.252854
0.287983
0.326856
0.368134
0.410723
0.454161
0.497947
0.542004
0.586141
0.630329
0.674506
0.718603
0.762529
0.806185
0.849478
0.892326
0.934667
0.976476
1.01774
1.05848
1.09872
1.1385
1.17784
1.21679
1.25538
1.29365
1.3316
1.36927
1.40666
1.44377
1.48061
1.51719
1.55349
1.58952
1.62526
1.6607
1.69585
1.73067
1.76518
1.79934
1.83314
1.86658
1.89964
1.9323
1.96455
1.99636
2.02772
2.0586
2.08898
2.11884
2.14815
2.17689
2.20502
2.23252
2.25937
2.28553
2.31099
2.33572
2.3597
2.38289
2.40528
2.42685
2.44759
2.46746
2.48646
2.50457
2.52178
2.53807
2.55342
2.56785
2.58132
2.59384
2.6054
2.616
2.62563
2.63429
2.64199
2.64871
2.65447
2.65926
2.6631
2.666
2.6679
2.66877
2.66886
2.66804
2.66631
2.66368
2.66017
2.6558
2.65059
2.64455
2.6377
2.63007
2.62166
2.6125
2.60261
2.59201
2.58071
2.56876
2.55616
2.54293
2.52911
2.51471
2.49976
2.48431
2.46839
2.45202
2.43527
2.41814
2.40068
2.3829
2.36484
2.34649
2.32789
2.30906
2.29004
2.27086
2.25157
2.2322
2.2128
2.19337
2.17397
2.15461
2.13534
2.1162
2.09717
2.0782
2.05808
2.03339
6.8114e-05
0.00089514
0.00513044
0.0159888
0.0274129
0.0352346
0.0398034
0.0421386
0.0430577
0.0430395
0.0425276
0.0414735
0.0401538
0.038699
0.0372065
0.0357492
0.0343769
0.0331187
0.031985
0.0309713
0.0300615
0.0292307
0.0284503
0.0276848
0.0268955
0.0260356
0.0250641
0.0239525
0.0226707
0.0211822
0.0194562
0.0175416
0.015809
0.0160882
0.0200586
0.0327216
0.0567646
0.0858656
0.112616
0.133193
0.146253
0.153488
0.158402
0.163882
0.17147
0.183347
0.200375
0.222759
0.250743
0.283495
0.320314
0.35978
0.400866
0.44281
0.485246
0.528024
0.571075
0.614424
0.658082
0.702072
0.746385
0.790977
0.835777
0.880689
0.925607
0.970443
1.01512
1.05959
1.1038
1.14774
1.19141
1.23479
1.27792
1.32079
1.36341
1.4058
1.44795
1.48987
1.53155
1.57299
1.61417
1.6551
1.69574
1.7361
1.77616
1.81591
1.85533
1.89441
1.93312
1.97146
2.00941
2.04695
2.08406
2.12072
2.15691
2.19262
2.22781
2.26245
2.29653
2.33002
2.36287
2.39508
2.4266
2.45741
2.48747
2.51677
2.54527
2.57294
2.59975
2.62568
2.6507
2.6748
2.69794
2.72011
2.7413
2.76147
2.78062
2.79873
2.81579
2.83178
2.8467
2.86055
2.8733
2.88497
2.89555
2.90502
2.91341
2.9207
2.9269
2.93201
2.93604
2.93901
2.94085
2.94159
2.94141
2.9402
2.93797
2.93474
2.93053
2.92535
2.91924
2.9122
2.90426
2.89544
2.88576
2.87524
2.86391
2.85179
2.83891
2.82528
2.81094
2.79592
2.78023
2.7639
2.74698
2.72949
2.71148
2.69298
2.67405
2.6547
2.63498
2.61492
2.59453
2.57384
2.55286
2.53163
2.5102
2.48859
2.46686
2.44505
2.42321
2.40136
2.37956
2.35784
2.33628
2.31492
2.29379
2.27284
2.25101
2.22535
0.000601257
0.0026853
0.0122807
0.0280921
0.0383607
0.0439676
0.0467457
0.0477892
0.0477085
0.046951
0.0455564
0.0438441
0.0419722
0.0400675
0.0382269
0.0365182
0.0349819
0.0336342
0.0324706
0.0314716
0.0306077
0.0298434
0.0291374
0.0284434
0.0276983
0.0268755
0.0259818
0.0250449
0.0241153
0.0233859
0.0232615
0.0244776
0.0284686
0.0370153
0.0547009
0.0812264
0.109182
0.134535
0.153699
0.164933
0.170466
0.17368
0.177851
0.186409
0.200039
0.219293
0.24399
0.27361
0.307401
0.34426
0.383164
0.423158
0.463745
0.504717
0.546042
0.587753
0.629915
0.672603
0.715876
0.759775
0.804305
0.849429
0.895076
0.941164
0.9876
1.03429
1.08115
1.12811
1.1751
1.22209
1.26904
1.31593
1.36274
1.40947
1.45609
1.50259
1.54896
1.59517
1.64121
1.68704
1.73264
1.77799
1.82308
1.86787
1.91234
1.95649
2.00028
2.0437
2.08673
2.12934
2.17151
2.21323
2.25448
2.29522
2.33543
2.3751
2.41418
2.45266
2.4905
2.52767
2.56414
2.59987
2.63483
2.669
2.70233
2.7348
2.76637
2.79701
2.82669
2.85538
2.88305
2.90968
2.93524
2.95971
2.98308
3.00531
3.02639
3.04631
3.06505
3.0826
3.09895
3.11409
3.12801
3.14072
3.1522
3.16246
3.1715
3.17932
3.18591
3.1913
3.19549
3.19849
3.20023
3.2008
3.20031
3.19866
3.19589
3.19201
3.18705
3.18102
3.17396
3.16588
3.1568
3.14676
3.13578
3.12388
3.11108
3.09742
3.08291
3.0676
3.05151
3.03467
3.0171
2.99884
2.97992
2.96039
2.9403
2.91968
2.89858
2.87703
2.85507
2.83274
2.81005
2.78703
2.7637
2.74011
2.71628
2.69228
2.66815
2.64393
2.61968
2.59544
2.57126
2.5472
2.52334
2.49975
2.47646
2.45344
2.42973
2.4026
0.00222954
0.00648447
0.0234514
0.038896
0.0470953
0.0510954
0.0526948
0.0527696
0.0519263
0.0502858
0.0482097
0.0459023
0.0435316
0.0412312
0.0390986
0.037195
0.0355486
0.034159
0.0330038
0.0320475
0.031246
0.030549
0.0299053
0.0292393
0.0285226
0.0277326
0.0269702
0.0263666
0.0261904
0.0272964
0.030961
0.0391705
0.0544543
0.0765147
0.102013
0.127019
0.148861
0.165097
0.174654
0.17931
0.182588
0.188263
0.198404
0.214051
0.235101
0.261136
0.291394
0.325005
0.361051
0.398631
0.437072
0.475977
0.51524
0.55489
0.595014
0.635716
0.677097
0.719252
0.762256
0.806151
0.850934
0.896585
0.943053
0.990267
1.03814
1.08659
1.13552
1.18485
1.23452
1.28446
1.33462
1.38495
1.43542
1.48599
1.53662
1.58727
1.63791
1.68849
1.73896
1.78928
1.8394
1.8893
1.93892
1.98826
2.03726
2.08591
2.13418
2.18205
2.22948
2.27646
2.32295
2.36894
2.4144
2.4593
2.50361
2.5473
2.59035
2.63272
2.67438
2.71529
2.75541
2.79472
2.83316
2.87071
2.90733
2.94298
2.97763
3.01125
3.0438
3.07524
3.10554
3.13469
3.16265
3.1894
3.21491
3.23916
3.26214
3.28383
3.3042
3.32325
3.34097
3.35735
3.37238
3.38607
3.39839
3.40937
3.41899
3.42727
3.43419
3.43979
3.44406
3.44702
3.4486
3.44894
3.44805
3.44591
3.44253
3.43794
3.43216
3.42523
3.41716
3.40798
3.39772
3.38641
3.37408
3.36075
3.34645
3.33121
3.31506
3.29803
3.28016
3.26148
3.24201
3.2218
3.20088
3.17931
3.15714
3.13441
3.11115
3.08741
3.06323
3.03864
3.01367
2.98834
2.96269
2.93675
2.91057
2.8842
2.85769
2.8311
2.80447
2.77786
2.75132
2.72493
2.69876
2.67291
2.64742
2.62228
2.59657
2.56775
0.00475531
0.0125859
0.0347271
0.0483998
0.0549063
0.0577326
0.0583925
0.0576796
0.0559805
0.0536387
0.0509272
0.0480676
0.0452454
0.042604
0.0402408
0.0382077
0.0365168
0.0351526
0.034078
0.0332433
0.0326051
0.032114
0.0317581
0.0315641
0.0316225
0.0321001
0.033229
0.0354053
0.0393179
0.0463016
0.0585376
0.0752652
0.0952212
0.116655
0.137347
0.155047
0.168347
0.17713
0.182758
0.188085
0.195934
0.208245
0.225637
0.247946
0.274517
0.304575
0.337302
0.371944
0.407835
0.444459
0.481524
0.518948
0.55679
0.595164
0.6342
0.674023
0.714754
0.756492
0.799306
0.84324
0.88831
0.934508
0.981797
1.03012
1.0794
1.12957
1.18053
1.23219
1.2845
1.33736
1.39071
1.44449
1.49864
1.55309
1.60778
1.66265
1.71763
1.77266
1.82767
1.88258
1.93733
1.99187
2.04615
2.10013
2.15376
2.20702
2.25986
2.31226
2.36418
2.4156
2.46648
2.5168
2.56653
2.61564
2.66409
2.71185
2.7589
2.80518
2.85068
2.89534
2.93913
2.982
3.02391
3.06482
3.1047
3.14351
3.1812
3.21775
3.25311
3.28724
3.32012
3.35171
3.38199
3.41093
3.4385
3.46469
3.48947
3.51283
3.53474
3.55519
3.57418
3.5917
3.60773
3.62228
3.63535
3.64693
3.65704
3.66566
3.67281
3.6785
3.68276
3.68557
3.68691
3.68692
3.68554
3.68279
3.67872
3.67333
3.66666
3.65873
3.64958
3.63924
3.62773
3.61508
3.60134
3.58653
3.57068
3.55382
3.53599
3.51721
3.49753
3.47698
3.4556
3.43342
3.41049
3.38688
3.36263
3.33778
3.31239
3.28648
3.26009
3.23327
3.20604
3.17843
3.15048
3.12223
3.09374
3.06504
3.03619
3.00726
2.97829
2.94934
2.92047
2.89175
2.86329
2.83518
2.80745
2.78014
2.75237
2.72195
0.00729291
0.0206494
0.0448641
0.0567998
0.0622121
0.0642327
0.0641829
0.0627397
0.0603554
0.0573792
0.0541041
0.0507785
0.047604
0.0447295
0.0422472
0.0401981
0.0385778
0.0373593
0.0364856
0.0358931
0.0356046
0.0354909
0.0356927
0.0363631
0.0377919
0.0405251
0.0452177
0.0525897
0.0631012
0.076702
0.0921726
0.109097
0.126401
0.14272
0.156822
0.168047
0.176644
0.183844
0.191644
0.202081
0.216507
0.235345
0.258307
0.284778
0.314038
0.34542
0.378339
0.412311
0.446969
0.482086
0.517596
0.553553
0.590079
0.627316
0.665413
0.704506
0.744715
0.786135
0.828847
0.872905
0.918337
0.965148
1.01332
1.0628
1.11355
1.16547
1.2185
1.27255
1.32754
1.38338
1.43999
1.49729
1.55519
1.6136
1.67244
1.73162
1.79104
1.85061
1.91024
1.96983
2.0293
2.08858
2.14759
2.20629
2.26463
2.32255
2.38003
2.43701
2.49345
2.54934
2.60462
2.65929
2.71329
2.7666
2.81918
2.871
2.922
2.97216
3.02144
3.06979
3.11717
3.16353
3.20882
3.253
3.29603
3.33788
3.37849
3.41784
3.45587
3.49256
3.52786
3.56174
3.59418
3.62515
3.65463
3.68259
3.709
3.73386
3.75714
3.77882
3.79891
3.81739
3.83426
3.84951
3.86315
3.87518
3.8856
3.89441
3.90164
3.90728
3.91136
3.91389
3.91488
3.91439
3.91239
3.90894
3.90404
3.89775
3.89008
3.88106
3.87074
3.85914
3.84629
3.83224
3.81702
3.80067
3.78322
3.7647
3.74515
3.72461
3.7031
3.68066
3.65734
3.63318
3.60825
3.5826
3.55629
3.52937
3.50187
3.47382
3.44528
3.41626
3.38682
3.35697
3.32677
3.29627
3.26551
3.23454
3.20342
3.1722
3.14094
3.10969
3.07853
3.04753
3.0168
2.98643
2.95648
2.92697
2.89712
2.86494
0.00920146
0.0293941
0.0536671
0.0648705
0.0696455
0.0710441
0.0703981
0.0683438
0.0653768
0.0618893
0.058208
0.0546018
0.0512791
0.0483866
0.0460084
0.0441798
0.0428772
0.0421103
0.0418257
0.0418886
0.0424908
0.0437736
0.045968
0.0493523
0.0542229
0.060821
0.069292
0.079616
0.0916214
0.104859
0.118615
0.132255
0.145109
0.156657
0.166764
0.17581
0.184803
0.195079
0.207922
0.224134
0.243919
0.266999
0.292848
0.3209
0.350636
0.381629
0.41354
0.446117
0.479202
0.51274
0.546774
0.581414
0.616804
0.653101
0.690454
0.728995
0.76885
0.810124
0.8529
0.897245
0.943202
0.99079
1.04001
1.09082
1.14318
1.19702
1.25228
1.30887
1.3667
1.42567
1.48568
1.54664
1.60844
1.67095
1.73407
1.79766
1.86161
1.92581
1.99014
2.05448
2.11872
2.18276
2.24654
2.30998
2.37303
2.43563
2.49772
2.55925
2.62018
2.68046
2.74009
2.79901
2.8572
2.91462
2.97122
3.02695
3.08178
3.13567
3.18858
3.24045
3.29124
3.34089
3.38936
3.4366
3.48256
3.52721
3.57051
3.61242
3.65288
3.69186
3.72932
3.76524
3.79958
3.83231
3.86342
3.89288
3.92066
3.94676
3.97114
3.99379
4.01472
4.03391
4.05136
4.06707
4.08105
4.09328
4.10379
4.11258
4.11966
4.12505
4.12876
4.13082
4.13126
4.13012
4.12735
4.12301
4.11716
4.10982
4.10102
4.0908
4.07919
4.06624
4.05197
4.03643
4.01967
4.00171
3.98261
3.96239
3.9411
3.91877
3.89542
3.87108
3.84583
3.81971
3.7928
3.76516
3.73683
3.70787
3.67832
3.64821
3.61757
3.58643
3.55484
3.52283
3.49046
3.45778
3.42485
3.3917
3.3584
3.32498
3.29151
3.25804
3.22466
3.19144
3.1585
3.12592
3.09377
3.0621
3.03017
2.9962
0.0103147
0.0370111
0.0619597
0.0729379
0.0773376
0.0783358
0.0772085
0.07465
0.0712439
0.0674494
0.063631
0.0600655
0.0569467
0.0544033
0.0525153
0.0513671
0.0509219
0.0509703
0.0517266
0.053217
0.05555
0.0588482
0.0632486
0.068855
0.0757157
0.0838054
0.0930215
0.103162
0.113926
0.124958
0.135901
0.146526
0.156728
0.166608
0.176591
0.187388
0.199812
0.214549
0.231998
0.2522
0.274918
0.299764
0.326324
0.354229
0.383182
0.412957
0.443396
0.474403
0.505949
0.538068
0.570856
0.604447
0.638988
0.674632
0.711531
0.749823
0.789635
0.831069
0.874216
0.919153
0.965937
1.0146
1.06515
1.11758
1.17186
1.22794
1.28574
1.34517
1.40614
1.46854
1.53224
1.59713
1.66306
1.72989
1.79743
1.86555
1.93409
2.00294
2.07194
2.14097
2.20991
2.27864
2.34709
2.41519
2.48285
2.55001
2.61659
2.68251
2.74774
2.81225
2.87601
2.93898
3.00114
3.06242
3.12278
3.18217
3.24055
3.29787
3.35409
3.40916
3.46303
3.51563
3.56692
3.61685
3.66537
3.71245
3.75805
3.80211
3.8446
3.88548
3.92471
3.96225
3.99809
4.03219
4.06453
4.09509
4.12386
4.1508
4.17591
4.19917
4.22057
4.24011
4.2578
4.27364
4.28762
4.29975
4.31005
4.31851
4.32517
4.33003
4.33313
4.33448
4.33415
4.33214
4.32837
4.32298
4.31599
4.30745
4.29737
4.28581
4.27279
4.25837
4.24259
4.22548
4.20709
4.18748
4.16668
4.14473
4.12168
4.09756
4.07238
4.04617
4.01901
3.99098
3.96214
3.93256
3.90229
3.87138
3.83987
3.80778
3.77515
3.74199
3.70835
3.67429
3.63986
3.60514
3.57016
3.53496
3.4996
3.46411
3.42855
3.39297
3.35748
3.32215
3.28709
3.2524
3.21812
3.18436
3.1504
3.1147
0.0109995
0.0437155
0.0701952
0.081255
0.0854074
0.0861105
0.0845547
0.0815733
0.07788
0.0740284
0.0704145
0.0672922
0.0648062
0.0630142
0.0620905
0.061839
0.0622821
0.063509
0.065532
0.0683824
0.0720837
0.0766671
0.0821468
0.088494
0.0956481
0.103512
0.111957
0.120835
0.130015
0.139413
0.148998
0.158844
0.169152
0.180262
0.192609
0.206614
0.222584
0.240659
0.260796
0.282804
0.306422
0.331372
0.357413
0.384355
0.412059
0.44044
0.469455
0.499109
0.529449
0.56056
0.592554
0.625556
0.659711
0.695174
0.732093
0.770611
0.810858
0.852956
0.896999
0.943061
0.991212
1.0415
1.09396
1.14857
1.20534
1.2642
1.32508
1.3879
1.45252
1.5188
1.5866
1.65575
1.72609
1.79741
1.86948
1.94211
2.01514
2.08843
2.16186
2.23531
2.30865
2.38179
2.45462
2.52709
2.59909
2.67053
2.74129
2.81126
2.88042
2.94877
3.01628
3.0829
3.1486
3.21331
3.27699
3.33957
3.401
3.46125
3.52027
3.578
3.6344
3.6894
3.74295
3.79499
3.8455
3.89442
3.94173
3.98737
4.0313
4.0735
4.1139
4.1525
4.18926
4.22416
4.25718
4.28831
4.31751
4.34479
4.37011
4.39347
4.41487
4.4343
4.45177
4.46729
4.48086
4.49249
4.50218
4.50995
4.51583
4.51984
4.52201
4.52236
4.52101
4.51781
4.51283
4.50616
4.49784
4.4879
4.47638
4.46332
4.44877
4.43277
4.41536
4.3966
4.37653
4.3552
4.33267
4.30897
4.28416
4.25827
4.23131
4.20326
4.17427
4.1444
4.11374
4.08232
4.05022
4.01747
3.98411
3.95019
3.91572
3.88068
3.84514
3.80918
3.77287
3.73626
3.6994
3.66233
3.62509
3.5877
3.5502
3.51268
3.47524
3.43795
3.40093
3.36425
3.32798
3.29224
3.25635
3.21907
0.0112834
0.050506
0.078226
0.0895248
0.0935742
0.0940896
0.092144
0.088721
0.0847983
0.0811113
0.0780497
0.0757529
0.0742515
0.0735543
0.0734241
0.0740569
0.0754756
0.0776416
0.0805357
0.0841464
0.0884604
0.0934586
0.0991033
0.105352
0.11216
0.119483
0.127294
0.135588
0.144396
0.153791
0.163901
0.174915
0.187048
0.200518
0.215504
0.232104
0.250326
0.270092
0.291267
0.313687
0.337194
0.361636
0.386897
0.412903
0.439611
0.467024
0.495169
0.524105
0.553915
0.584701
0.616582
0.649699
0.6842
0.720241
0.757979
0.797565
0.839156
0.88286
0.928713
0.976796
1.02722
1.08004
1.13528
1.19296
1.25306
1.31553
1.38029
1.44722
1.51615
1.58691
1.65926
1.73301
1.80792
1.8837
1.96012
2.03695
2.11399
2.1911
2.26827
2.34543
2.42255
2.49946
2.57608
2.65232
2.72808
2.80319
2.87752
2.95095
3.02349
3.09511
3.16577
3.23543
3.30404
3.37152
3.43783
3.50289
3.56665
3.62909
3.69014
3.74977
3.80791
3.86451
3.91951
3.97287
4.02455
4.0745
4.12271
4.16912
4.21369
4.2564
4.29721
4.33608
4.373
4.40795
4.44092
4.47188
4.50083
4.52774
4.55261
4.57544
4.5962
4.61492
4.6316
4.64624
4.65886
4.66947
4.67807
4.68468
4.68934
4.69208
4.69294
4.692
4.6892
4.68449
4.67801
4.6698
4.65989
4.64833
4.63517
4.62044
4.60419
4.58646
4.56731
4.54679
4.52495
4.50183
4.4775
4.45201
4.42541
4.39775
4.36903
4.33926
4.30857
4.27701
4.24465
4.21155
4.17775
4.14332
4.10829
4.0727
4.03657
3.99985
3.96262
3.92498
3.88701
3.84874
3.81023
3.77151
3.73261
3.69352
3.65431
3.61507
3.57589
3.53686
3.49807
3.4596
3.42152
3.38396
3.34631
3.30766
0.0113174
0.0571599
0.0861663
0.0977175
0.101655
0.101914
0.0994736
0.0957959
0.0920869
0.0889885
0.0867245
0.0853909
0.0848535
0.0848184
0.0854748
0.0868636
0.0889406
0.0916681
0.095016
0.0989632
0.103493
0.108593
0.114258
0.120495
0.127324
0.134781
0.142927
0.151836
0.161604
0.172347
0.18419
0.197248
0.211598
0.227281
0.244287
0.262569
0.282049
0.302634
0.324231
0.346771
0.370161
0.394325
0.419251
0.444948
0.471447
0.498806
0.527096
0.556411
0.586853
0.618534
0.651581
0.686134
0.722342
0.760369
0.800373
0.842494
0.886857
0.93356
0.982678
1.03428
1.08843
1.14515
1.20447
1.26637
1.33083
1.39778
1.46714
1.53878
1.6125
1.68808
1.76518
1.84342
1.92243
2.00206
2.08218
2.16255
2.24292
2.32319
2.40347
2.48372
2.56379
2.64354
2.72293
2.80202
2.88057
2.95839
3.03533
3.11137
3.18642
3.2604
3.33326
3.40496
3.47545
3.54464
3.61248
3.67889
3.74384
3.80728
3.8692
3.92953
3.98823
4.04524
4.10051
4.15398
4.20563
4.25543
4.30337
4.34939
4.39347
4.43558
4.47567
4.51374
4.54976
4.58372
4.61563
4.64546
4.6732
4.69884
4.72238
4.74381
4.76312
4.78034
4.79547
4.80853
4.81953
4.82847
4.83537
4.84025