/*--------------------------------*- C++ -*----------------------------------*\
| =========                 |                                                 |
| \\      /  F ield         | OpenFOAM: The Open Source CFD Toolbox           |
|  \\    /   O peration     | Version:  2112                                  |
|   \\  /    A nd           | Website:  www.openfoam.com                      |
|    \\/     M anipulation  |                                                 |
\*---------------------------------------------------------------------------*/
FoamFile
{
    version     2.0;
    format      ascii;
    arch        "LSB;label=32;scalar=64";
    class       volScalarField;
    location    "383";
    object      nut;
}
// * * * * * * * * * * * * * * * * * * * * * * * * * * * * * * * * * * * * * //

dimensions      [0 2 -1 0 0 0 0];

internalField   nonuniform List<scalar> 
12225
(
5.30186e-06
8.09039e-06
9.99869e-06
1.11301e-05
1.17047e-05
1.18893e-05
1.19437e-05
1.18576e-05
1.17014e-05
1.15337e-05
1.13695e-05
1.12089e-05
1.1073e-05
1.0931e-05
1.08383e-05
1.07056e-05
1.06689e-05
1.05429e-05
8.50625e-05
5.54179e-05
4.28289e-05
3.7142e-05
3.42725e-05
3.31316e-05
3.2722e-05
3.31015e-05
3.37453e-05
3.37544e-05
3.33191e-05
3.34645e-05
3.3319e-05
3.36964e-05
3.37119e-05
3.42565e-05
3.44263e-05
3.52007e-05
0.000314074
0.000275668
0.000204384
0.000158647
0.00013238
0.000113138
0.000101845
9.2067e-05
8.6089e-05
7.90847e-05
7.46568e-05
6.95277e-05
6.64926e-05
6.2818e-05
6.08572e-05
5.81875e-05
5.7047e-05
5.51133e-05
0.000611999
0.000591059
0.000511872
0.000422875
0.000365675
0.000314683
0.000284301
0.000254083
0.000236218
0.000215097
0.00020241
0.000186837
0.00017784
0.000166166
0.000159857
0.000150995
0.000146817
0.000139289
0.000788731
0.000774874
0.000737258
0.000668755
0.000615968
0.00055696
0.000518135
0.000475621
0.000448827
0.000417599
0.000397919
0.000373638
0.000358856
0.000339616
0.00032875
0.00031332
0.000305964
0.00029214
0.000841094
0.000835644
0.00082019
0.000795346
0.000767939
0.000729026
0.000700138
0.000664575
0.00063959
0.000609558
0.000588873
0.000563447
0.000546599
0.000525058
0.000511962
0.000493688
0.000484473
0.000467594
0.000850275
0.000847958
0.000843191
0.000836762
0.00082709
0.00081106
0.000796795
0.000776532
0.000760856
0.000740532
0.000725208
0.000705809
0.000691823
0.000673925
0.000662157
0.000645999
0.000637178
0.00062176
0.00085135
0.000850595
0.000849272
0.000847221
0.000843911
0.000838884
0.000833537
0.000825367
0.000818222
0.000808032
0.000799609
0.000788385
0.000779592
0.000768124
0.00075991
0.000748813
0.000742094
0.000731037
0.000851537
0.000850675
0.00084997
0.000848927
0.000847942
0.00084614
0.00084437
0.000841547
0.000838641
0.000834834
0.000830911
0.00082615
0.000821663
0.000815903
0.000811203
0.000805167
0.000800876
0.000794592
0.000851575
0.000850653
0.00084996
0.00084909
0.000848448
0.000847511
0.00084673
0.000845573
0.00084449
0.000842952
0.000841479
0.00083945
0.000837563
0.000835081
0.000832844
0.000830134
0.000827901
0.000824913
0.000851568
0.000850662
0.000849916
0.000849096
0.000848433
0.000847674
0.000847053
0.000846305
0.000845676
0.000844866
0.000844159
0.000843208
0.00084237
0.000841239
0.000840292
0.000838995
0.000838047
0.000836636
0.000851556
0.000850671
0.000849892
0.000849094
0.000848397
0.000847673
0.000847046
0.000846379
0.000845805
0.000845169
0.000844618
0.000843974
0.000843415
0.000842733
0.000842158
0.000841435
0.000840862
0.000840122
0.000851547
0.000850675
0.000849876
0.00084909
0.000848372
0.00084766
0.000847013
0.000846368
0.000845783
0.000845192
0.000844657
0.000844106
0.000843605
0.000843078
0.000842602
0.000842094
0.000841639
0.000841152
0.000851542
0.000850676
0.000849865
0.000849084
0.000848353
0.000847647
0.000846985
0.000846346
0.000845746
0.000845165
0.00084462
0.00084409
0.000843591
0.000843104
0.000842645
0.000842195
0.000841769
0.000841354
0.000851539
0.000850675
0.000849858
0.000849078
0.000848339
0.000847633
0.000846964
0.000846325
0.000845717
0.000845136
0.000844583
0.000844053
0.000843549
0.000843065
0.000842603
0.000842161
0.000841737
0.000841332
0.000851538
0.000850674
0.000849853
0.000849072
0.000848329
0.000847622
0.000846949
0.000846307
0.000845695
0.00084511
0.000844553
0.00084402
0.000843512
0.000843025
0.00084256
0.000842115
0.000841688
0.000841281
0.000851537
0.000850673
0.000849851
0.000849068
0.000848324
0.000847614
0.000846939
0.000846294
0.00084568
0.000845093
0.000844533
0.000843997
0.000843486
0.000842996
0.000842529
0.00084208
0.000841652
0.000841242
0.000851539
0.000850677
0.000849857
0.000849076
0.000848331
0.000847622
0.000846946
0.000846302
0.000845686
0.000845098
0.000844537
0.000844
0.000843487
0.000842996
0.000842526
0.000842077
0.000841646
0.000841235
0.000851537
0.000850673
0.00084985
0.000849067
0.000848321
0.00084761
0.000846931
0.000846285
0.000845667
0.000845077
0.000844514
0.000843975
0.00084346
0.000842967
0.000842496
0.000842045
0.000841613
0.0008412
0.000851537
0.000850673
0.00084985
0.000849066
0.00084832
0.000847609
0.00084693
0.000846283
0.000845665
0.000845075
0.000844511
0.000843972
0.000843457
0.000842964
0.000842492
0.000842041
0.000841608
0.000841194
0.000851537
0.000850675
0.000849852
0.000849071
0.000848324
0.000847615
0.000846937
0.000846292
0.000845673
0.000845085
0.000844519
0.000843981
0.000843463
0.00084297
0.000842494
0.000842041
0.000841602
0.000841184
0.000851535
0.000850679
0.000849853
0.00084908
0.000848329
0.000847625
0.000846939
0.000846296
0.000845666
0.000845074
0.000844487
0.000843935
0.00084338
0.00084286
0.00084233
0.000841834
0.000841322
0.000840848
0.000851533
0.000850686
0.000849855
0.000849095
0.000848301
0.00084756
0.000846778
0.000846061
0.000845302
0.000844583
0.000843788
0.000843012
0.000842142
0.000841309
0.000840354
0.000839477
0.000838448
0.000837549
0.000851557
0.000850637
0.000849878
0.000848952
0.000847666
0.000846231
0.000844479
0.000842884
0.000841087
0.000839327
0.000837181
0.000834885
0.000832301
0.000829577
0.000826733
0.000823842
0.000820768
0.000818012
0.000851626
0.000849307
0.00084903
0.000846204
0.000840538
0.000833699
0.000826231
0.000819749
0.000813016
0.000806913
0.000799458
0.000792129
0.000783472
0.000775739
0.000766929
0.000759441
0.000750856
0.000743969
0.000846523
0.000829294
0.00083523
0.000814857
0.00078705
0.00076605
0.000745263
0.000727723
0.000708096
0.000690829
0.000671632
0.000655295
0.000637634
0.000623211
0.000607586
0.000595265
0.000581546
0.000571212
0.000756456
0.000763957
0.000738407
0.000669011
0.000604235
0.000560211
0.000522086
0.000492947
0.000464378
0.000441972
0.0004193
0.000401936
0.000384037
0.000370732
0.000356511
0.00034623
0.000334598
0.00032635
0.000427785
0.000447354
0.000390845
0.000325915
0.000276532
0.000243449
0.000217963
0.000200147
0.000184824
0.0001739
0.00016372
0.000156549
0.000149434
0.000144566
0.000139375
0.000135935
0.000131814
0.000128927
0.000113643
0.000107444
8.72266e-05
7.35514e-05
6.47869e-05
5.93593e-05
5.57068e-05
5.35311e-05
5.20352e-05
5.13897e-05
5.09659e-05
5.1095e-05
5.12506e-05
5.17128e-05
5.10452e-05
5.0456e-05
5.00634e-05
4.96704e-05
5.94041e-06
8.02256e-06
9.6794e-06
1.09491e-05
1.18576e-05
1.25088e-05
1.29228e-05
1.32161e-05
1.33522e-05
1.34412e-05
1.3483e-05
1.34731e-05
1.34411e-05
1.3393e-05
1.33385e-05
1.32807e-05
1.32212e-05
1.31617e-05
3.65253e-10
1.31781e-08
3.39692e-08
6.59442e-08
1.05248e-07
1.51655e-07
2.29912e-07
3.59176e-07
5.52061e-07
8.01587e-07
1.06925e-06
1.33933e-06
1.5891e-06
1.80773e-06
1.99297e-06
2.14167e-06
2.25375e-06
2.32931e-06
2.37283e-06
2.36724e-06
2.35438e-06
2.2978e-06
2.21565e-06
2.06817e-06
1.8594e-06
1.58288e-06
1.24312e-06
8.61665e-07
4.90654e-07
2.08317e-07
6.01986e-08
1.69392e-08
1.3508e-08
1.49228e-08
1.73426e-08
2.04684e-08
2.35318e-08
2.56567e-08
3.29206e-08
5.30627e-08
1.3737e-07
3.05259e-07
5.40248e-07
7.34238e-07
8.38568e-07
8.29054e-07
7.78647e-07
6.95484e-07
6.0859e-07
5.45932e-07
5.63568e-07
7.06082e-07
8.53986e-07
9.46145e-07
1.13854e-06
1.56391e-06
3.60493e-06
8.8279e-06
1.41925e-05
1.8865e-05
2.28571e-05
2.5419e-05
2.67871e-05
2.80017e-05
2.91318e-05
3.0238e-05
3.1292e-05
3.22497e-05
3.31658e-05
3.40249e-05
3.48521e-05
3.56419e-05
3.64072e-05
3.7148e-05
3.787e-05
3.85744e-05
3.92635e-05
3.99403e-05
4.06053e-05
4.12611e-05
4.19075e-05
4.25465e-05
4.31779e-05
4.38032e-05
4.44221e-05
4.50355e-05
4.56433e-05
4.62458e-05
4.6843e-05
4.74349e-05
4.80212e-05
4.86017e-05
4.91761e-05
4.97439e-05
5.03048e-05
5.08586e-05
5.14056e-05
5.19467e-05
5.24842e-05
5.30222e-05
5.3567e-05
5.41149e-05
5.46594e-05
5.52064e-05
5.57555e-05
5.63074e-05
5.68627e-05
5.74216e-05
5.79848e-05
5.85527e-05
5.91259e-05
5.97049e-05
6.02903e-05
6.08828e-05
6.14831e-05
6.2092e-05
6.27103e-05
6.3339e-05
6.39789e-05
6.46312e-05
6.5297e-05
6.59774e-05
6.66738e-05
6.73876e-05
6.81202e-05
6.88733e-05
6.96576e-05
7.04799e-05
7.13077e-05
7.2168e-05
7.22616e-05
7.20397e-05
7.17962e-05
7.15372e-05
7.12606e-05
7.09692e-05
7.06633e-05
7.0336e-05
6.99894e-05
6.96291e-05
6.92514e-05
6.8859e-05
6.84509e-05
6.80282e-05
6.75911e-05
6.71413e-05
6.66742e-05
6.62032e-05
6.57059e-05
6.52117e-05
6.46878e-05
6.41715e-05
6.36227e-05
6.30868e-05
6.25157e-05
6.19636e-05
6.13732e-05
6.08082e-05
6.02026e-05
5.96244e-05
5.90073e-05
5.84154e-05
5.77897e-05
5.71791e-05
5.6552e-05
5.5925e-05
5.52931e-05
5.46583e-05
5.40207e-05
5.33806e-05
5.27374e-05
5.20902e-05
5.14378e-05
5.07774e-05
5.01058e-05
4.94171e-05
4.87182e-05
4.81542e-05
4.76315e-05
4.56982e-05
1.78816e-09
6.90383e-09
4.44791e-08
1.3629e-07
4.09042e-07
1.33701e-06
3.17141e-06
5.81042e-06
9.17293e-06
1.26214e-05
1.63887e-05
2.08362e-05
2.42928e-05
2.7162e-05
2.93028e-05
3.05625e-05
3.09689e-05
3.08936e-05
2.97791e-05
2.8245e-05
2.48432e-05
2.07803e-05
1.65588e-05
1.27998e-05
9.67767e-06
7.10913e-06
5.12668e-06
3.62086e-06
2.42877e-06
1.55808e-06
9.39584e-07
5.52798e-07
3.42622e-07
2.29807e-07
1.70904e-07
1.4351e-07
1.36643e-07
1.48384e-07
8.14273e-07
1.56589e-06
5.27368e-06
1.09519e-05
1.7646e-05
2.18767e-05
2.32108e-05
2.18851e-05
2.02255e-05
1.5677e-05
1.24262e-05
1.15782e-05
1.21577e-05
1.23634e-05
1.16081e-05
1.30611e-05
1.65468e-05
2.19742e-05
2.9933e-05
3.98385e-05
4.96524e-05
6.11812e-05
7.38518e-05
8.77895e-05
0.000102609
0.000118101
0.000133952
0.000149853
0.000165545
0.000180796
0.000195467
0.000209462
0.00022275
0.000235345
0.000247263
0.000258493
0.000269298
0.000279727
0.000289651
0.000299213
0.00030845
0.000317415
0.000326128
0.000334627
0.000342925
0.000351048
0.000359006
0.000366815
0.000374484
0.000382021
0.000389434
0.000396728
0.000403906
0.000410967
0.000417909
0.000424725
0.0004314
0.000437912
0.000444225
0.000450287
0.000456017
0.000461302
0.00046599
0.000470341
0.000474676
0.000478834
0.000482901
0.000486831
0.000490645
0.000494328
0.000497884
0.000501309
0.0005046
0.000507756
0.000510776
0.000513656
0.000516395
0.000518992
0.000521446
0.000523754
0.000525916
0.000527932
0.000529799
0.000531519
0.000533091
0.000534515
0.000535794
0.00053693
0.000537931
0.000538817
0.000539633
0.000540408
0.000541265
0.000541995
0.00054254
0.000543
0.000543219
0.00054343
0.000543548
0.00054354
0.000543322
0.000543002
0.000542557
0.000541993
0.000541308
0.000540502
0.00053957
0.000538496
0.000537508
0.000536086
0.000535008
0.000533326
0.000532074
0.000530167
0.000528743
0.000526629
0.000525044
0.000522752
0.000521025
0.000518589
0.000516738
0.000514199
0.000512216
0.000509617
0.000507472
0.000504908
0.000502469
0.000499943
0.000497391
0.000494809
0.000492201
0.000489568
0.000486905
0.000484203
0.00048145
0.00047861
0.00047563
0.000472415
0.000468767
0.000464031
0.000457587
0.000440154
2.14884e-09
5.56757e-09
6.11941e-08
3.26676e-07
1.33207e-06
2.95138e-06
6.599e-06
1.15203e-05
1.77132e-05
2.489e-05
3.2717e-05
4.0831e-05
4.88452e-05
5.59949e-05
6.19256e-05
6.65147e-05
6.96013e-05
7.16398e-05
7.21256e-05
7.14715e-05
6.87556e-05
6.49132e-05
5.89354e-05
5.13542e-05
4.27573e-05
3.4283e-05
2.62057e-05
1.93402e-05
1.38147e-05
9.61992e-06
6.53754e-06
4.1911e-06
2.70477e-06
1.80716e-06
1.29383e-06
1.06888e-06
9.65815e-07
8.76016e-07
3.45636e-06
6.89305e-06
1.96147e-05
3.71162e-05
5.0388e-05
5.78664e-05
5.99329e-05
5.45421e-05
4.37213e-05
3.12063e-05
2.62642e-05
2.7549e-05
3.12143e-05
3.70313e-05
4.49377e-05
5.81739e-05
7.38921e-05
9.1025e-05
0.00011145
0.000135603
0.000164333
0.000196854
0.000232082
0.000269073
0.000306754
0.000344149
0.000380533
0.000415331
0.000448298
0.000479299
0.000508391
0.000535698
0.000561393
0.000585438
0.000608471
0.000630518
0.000651529
0.000671778
0.000691276
0.000710195
0.000728569
0.000746478
0.000763961
0.000781063
0.000797812
0.000814237
0.000830357
0.000846189
0.000861744
0.000877032
0.000892058
0.000906823
0.000921324
0.000935556
0.000949505
0.000963152
0.000976473
0.000989435
0.001002
0.00101412
0.00102576
0.00103689
0.00104759
0.00105803
0.00106826
0.00107821
0.00108791
0.00109733
0.00110649
0.00111536
0.00112395
0.00113226
0.00114027
0.00114798
0.00115538
0.00116248
0.00116928
0.00117575
0.00118191
0.00118775
0.00119327
0.00119847
0.00120335
0.0012079
0.00121213
0.00121603
0.00121963
0.00122291
0.0012259
0.00122863
0.00123111
0.00123337
0.00123542
0.00123717
0.00123858
0.00123964
0.00124027
0.00124078
0.00124101
0.0012409
0.0012405
0.00123981
0.00123884
0.0012376
0.00123609
0.0012343
0.00123225
0.00122994
0.00122749
0.00122459
0.00122176
0.00121833
0.00121507
0.00121115
0.00120747
0.00120308
0.00119902
0.00119422
0.00118982
0.00118469
0.00118001
0.00117461
0.00116966
0.00116406
0.00115883
0.00115313
0.00114749
0.00114172
0.00113587
0.00112995
0.00112398
0.00111795
0.00111186
0.00110568
0.00109938
0.00109291
0.00108614
0.0010789
0.00107081
0.00106074
0.00104691
0.0010157
2.16873e-09
1.34977e-08
1.90873e-07
7.79298e-07
2.59912e-06
6.85215e-06
1.39174e-05
2.34641e-05
3.517e-05
4.80641e-05
6.11542e-05
7.37854e-05
8.5139e-05
9.47289e-05
0.000102014
0.000107652
0.000111396
0.000113266
0.00011357
0.000112475
0.000110019
0.000105917
0.00010043
9.3837e-05
8.49899e-05
7.4575e-05
6.29733e-05
5.10408e-05
3.98414e-05
3.03355e-05
2.25491e-05
1.66043e-05
1.18831e-05
8.60772e-06
6.22399e-06
4.90818e-06
4.33667e-06
4.32588e-06
1.29121e-05
2.5679e-05
4.85742e-05
6.4553e-05
7.31152e-05
7.48236e-05
6.31773e-05
5.28286e-05
5.14926e-05
5.48598e-05
5.91e-05
6.68357e-05
7.97965e-05
9.91218e-05
0.000115645
0.000143037
0.000170318
0.000207571
0.000248736
0.000296434
0.000347377
0.000401311
0.000456071
0.000510804
0.000564307
0.000615915
0.000665177
0.000711869
0.000755988
0.000797653
0.000837016
0.000874052
0.000909543
0.000943466
0.000975879
0.00100709
0.00103717
0.00106632
0.0010946
0.00112215
0.00114902
0.00117527
0.00120096
0.00122613
0.0012508
0.00127501
0.00129878
0.00132212
0.00134504
0.00136755
0.00138965
0.00141134
0.00143262
0.00145348
0.0014739
0.00149387
0.00151338
0.00153239
0.00155091
0.0015689
0.00158639
0.00160337
0.00161994
0.00163614
0.00165197
0.00166739
0.00168242
0.00169703
0.00171123
0.00172499
0.00173832
0.00175121
0.00176365
0.00177564
0.00178716
0.00179822
0.00180881
0.00181892
0.00182855
0.00183771
0.00184637
0.00185456
0.00186226
0.00186948
0.00187621
0.00188247
0.00188825
0.00189358
0.00189845
0.0019029
0.00190692
0.00191052
0.0019137
0.0019164
0.00191862
0.00192028
0.00192146
0.00192234
0.00192274
0.00192269
0.00192219
0.00192127
0.00191992
0.00191816
0.001916
0.00191343
0.00191047
0.00190715
0.00190348
0.00189936
0.00189502
0.00189017
0.00188514
0.00187958
0.0018739
0.00186766
0.00186137
0.00185454
0.00184772
0.00184038
0.00183311
0.00182535
0.00181769
0.00180957
0.00180153
0.00179312
0.00178464
0.00177599
0.00176721
0.00175832
0.00174934
0.00174027
0.0017311
0.00172181
0.00171234
0.00170263
0.00169254
0.00168183
0.00167006
0.00165594
0.00163676
0.00160005
2.87019e-09
4.19643e-08
4.27728e-07
1.89083e-06
6.47081e-06
1.60225e-05
3.01388e-05
4.78558e-05
6.72474e-05
8.64287e-05
0.000103975
0.000118839
0.000130062
0.000138716
0.000144705
0.000148344
0.000150112
0.000150326
0.000149222
0.000146961
0.000143658
0.000138986
0.000133419
0.000127036
0.000118924
0.000109238
9.79154e-05
8.51824e-05
7.14801e-05
5.81319e-05
4.62308e-05
3.63153e-05
2.82175e-05
2.19948e-05
1.80518e-05
1.45404e-05
1.51781e-05
2.16125e-05
3.91427e-05
6.72084e-05
8.86486e-05
9.41007e-05
8.88634e-05
8.36361e-05
8.18867e-05
8.33814e-05
8.86392e-05
9.84833e-05
0.000114907
0.00013157
0.000153632
0.000184703
0.000220783
0.000266106
0.000315155
0.000373326
0.000433406
0.000498161
0.000563748
0.000630226
0.000695823
0.000760048
0.000822162
0.000881836
0.000938926
0.000993354
0.00104491
0.00109428
0.00114168
0.00118675
0.00123009
0.00127179
0.001312
0.00135091
0.00138864
0.00142533
0.00146107
0.00149594
0.00153002
0.00156335
0.00159599
0.00162798
0.00165933
0.00169009
0.00172027
0.00174988
0.00177893
0.00180744
0.0018354
0.00186282
0.0018897
0.00191602
0.00194179
0.001967
0.00199164
0.00201571
0.0020392
0.00206213
0.00208451
0.00210635
0.00212769
0.00214854
0.00216888
0.0021887
0.00220799
0.00222675
0.00224496
0.00226261
0.0022797
0.00229622
0.00231217
0.00232752
0.00234229
0.00235647
0.00237004
0.00238302
0.00239538
0.00240714
0.00241828
0.00242882
0.00243874
0.00244806
0.00245678
0.00246489
0.00247241
0.00247935
0.00248571
0.00249152
0.00249678
0.00250145
0.00250556
0.00250909
0.00251201
0.00251423
0.00251597
0.00251721
0.00251788
0.002518
0.00251756
0.0025166
0.00251511
0.00251311
0.00251061
0.00250761
0.00250413
0.00250019
0.00249578
0.0024909
0.00248562
0.00247984
0.00247368
0.00246704
0.00246005
0.00245257
0.00244481
0.00243659
0.00242815
0.00241928
0.00241025
0.00240084
0.0023913
0.0023814
0.00237138
0.00236104
0.00235053
0.00233981
0.00232891
0.00231786
0.00230667
0.00229533
0.00228386
0.00227222
0.00226038
0.00224826
0.00223573
0.00222255
0.00220829
0.00219179
0.00216978
0.00213299
2.40382e-09
9.88073e-08
1.00606e-06
4.82963e-06
1.64031e-05
3.55508e-05
5.95013e-05
8.56137e-05
0.000110009
0.000130221
0.000145828
0.00015768
0.000166179
0.000171787
0.000175228
0.000176929
0.000177215
0.000176314
0.000174378
0.000171513
0.000167748
0.000162862
0.000157281
0.000150899
0.000143109
0.000133957
0.0001233
0.00011114
9.763e-05
8.21477e-05
6.65403e-05
5.28938e-05
4.19961e-05
3.32415e-05
2.88445e-05
2.93669e-05
3.81627e-05
6.07187e-05
8.69791e-05
0.000102798
0.00010912
0.00010997
0.000109549
0.000111304
0.000117622
0.000130049
0.000146491
0.000159902
0.000186092
0.000218009
0.000258212
0.00030715
0.000362398
0.000425021
0.000490887
0.000561733
0.00063342
0.000707056
0.000780277
0.000852918
0.00092401
0.000993218
0.00106025
0.00112453
0.00118639
0.00124637
0.00130368
0.00135882
0.00141191
0.00146303
0.00151242
0.00156022
0.00160655
0.00165156
0.00169537
0.00173806
0.00177972
0.00182043
0.00186023
0.00189918
0.00193732
0.00197468
0.00201129
0.00204718
0.00208236
0.00211685
0.00215066
0.0021838
0.00221629
0.00224811
0.00227929
0.00230981
0.00233967
0.00236889
0.00239746
0.00242538
0.00245265
0.0024793
0.00250534
0.00253077
0.00255559
0.00257981
0.00260342
0.00262641
0.00264876
0.00267048
0.00269155
0.00271196
0.00273172
0.0027508
0.00276921
0.00278694
0.00280398
0.00282034
0.002836
0.00285098
0.00286526
0.00287884
0.00289172
0.0029039
0.00291539
0.00292618
0.00293629
0.00294572
0.00295448
0.00296256
0.00296998
0.00297678
0.00298298
0.00298842
0.00299325
0.00299744
0.00300092
0.00300364
0.00300588
0.0030075
0.00300848
0.00300885
0.00300861
0.00300777
0.00300636
0.00300437
0.00300182
0.00299872
0.00299508
0.00299092
0.00298623
0.00298103
0.00297534
0.00296914
0.00296247
0.0029553
0.00294768
0.00293958
0.00293108
0.00292214
0.00291285
0.00290317
0.00289319
0.00288286
0.00287228
0.00286136
0.00285021
0.00283875
0.00282703
0.00281508
0.0028029
0.00279053
0.00277798
0.00276525
0.00275236
0.00273927
0.00272597
0.00271238
0.00269838
0.00268379
0.0026682
0.00265062
0.00262818
0.00259345
5.94152e-09
2.51944e-07
2.6171e-06
1.33292e-05
3.60653e-05
6.66639e-05
9.86194e-05
0.000125679
0.000147054
0.000163072
0.000175263
0.000183442
0.000188811
0.000192058
0.000193708
0.000194133
0.000193558
0.000192112
0.000189857
0.000186842
0.000182989
0.000178147
0.000172684
0.000166263
0.000158593
0.000144564
0.000128244
0.000112837
9.78998e-05
8.28714e-05
6.77945e-05
5.40144e-05
4.36916e-05
4.03738e-05
4.52499e-05
6.36449e-05
9.04404e-05
0.000112341
0.000126233
0.000133111
0.000135612
0.00013832
0.000145506
0.000159712
0.000171379
0.000185918
0.000211374
0.000243609
0.000285113
0.000333732
0.000390918
0.000455049
0.000524015
0.000597132
0.000672262
0.000749497
0.000826909
0.0009045
0.000981138
0.00105653
0.00113026
0.00120159
0.00127102
0.00133873
0.00140399
0.00146719
0.00152821
0.00158725
0.00164441
0.00169979
0.00175354
0.00180577
0.0018566
0.00190611
0.00195441
0.00200156
0.00204763
0.00209268
0.00213675
0.00217987
0.00222209
0.00226342
0.0023039
0.00234355
0.00238239
0.00242043
0.00245768
0.00249417
0.0025299
0.00256489
0.00259913
0.00263265
0.00266543
0.00269749
0.00272883
0.00275946
0.00278937
0.00281858
0.00284708
0.00287488
0.00290199
0.00292842
0.00295415
0.00297919
0.00300351
0.00302713
0.00305002
0.00307219
0.00309363
0.00311434
0.0031343
0.00315352
0.003172
0.00318974
0.00320672
0.00322296
0.00323844
0.00325319
0.00326719
0.00328046
0.00329298
0.00330476
0.0033158
0.00332611
0.0033357
0.00334456
0.00335271
0.00336021
0.00336703
0.00337305
0.00337841
0.00338309
0.00338699
0.00339016
0.0033928
0.00339479
0.00339613
0.00339682
0.00339688
0.00339632
0.00339515
0.00339338
0.00339103
0.00338809
0.00338459
0.00338054
0.00337594
0.00337081
0.00336514
0.00335895
0.00335226
0.00334504
0.00333734
0.00332915
0.0033205
0.00331141
0.00330191
0.00329202
0.00328177
0.00327116
0.00326023
0.00324896
0.00323739
0.00322549
0.0032133
0.00320083
0.0031881
0.00317514
0.00316196
0.00314858
0.003135
0.00312121
0.00310719
0.0030929
0.00307824
0.00306307
0.00304709
0.00302948
0.00300803
0.00297658
5.24168e-08
7.06137e-07
6.89851e-06
2.97886e-05
6.54428e-05
0.000103363
0.000135768
0.000160866
0.000178927
0.000191496
0.000198874
0.000202925
0.000204746
0.000205134
0.000204614
0.00020351
0.000202009
0.000200116
0.000197685
0.000194477
0.000190369
0.000185313
0.00017936
0.000172119
0.000154651
0.000138113
0.000123093
0.000109143
9.60987e-05
8.39282e-05
7.37635e-05
6.85907e-05
7.17977e-05
8.20463e-05
9.84347e-05
0.000126445
0.000148487
0.000158353
0.000164109
0.000168478
0.000176094
0.000189742
0.000195341
0.000209501
0.000232349
0.000263305
0.000303099
0.000350413
0.000405987
0.000468355
0.000537307
0.000610645
0.000686834
0.000765082
0.000844316
0.000924126
0.00100359
0.0010824
0.00116005
0.00123579
0.00130993
0.0013828
0.00145353
0.00152239
0.00158925
0.00165421
0.00171731
0.00177862
0.00183824
0.00189626
0.00195276
0.00200785
0.0020616
0.0021141
0.0021654
0.00221557
0.00226464
0.00231264
0.00235962
0.0024056
0.00245059
0.00249463
0.00253773
0.00257992
0.00262121
0.00266162
0.00270118
0.00273989
0.00277777
0.00281483
0.00285109
0.00288656
0.00292124
0.00295515
0.0029883
0.00302067
0.00305228
0.00308312
0.00311318
0.00314251
0.00317111
0.00319897
0.0032261
0.00325248
0.00327811
0.00330299
0.0033271
0.00335046
0.00337305
0.00339486
0.00341591
0.00343617
0.00345566
0.00347436
0.00349229
0.00350943
0.0035258
0.00354139
0.0035562
0.00357023
0.00358349
0.00359598
0.00360771
0.00361868
0.0036289
0.00363838
0.00364712
0.00365521
0.00366254
0.00366909
0.00367496
0.00368012
0.00368448
0.00368816
0.00369125
0.00369364
0.00369537
0.00369643
0.00369685
0.00369664
0.0036958
0.00369435
0.0036923
0.00368966
0.00368644
0.00368266
0.00367832
0.00367343
0.003668
0.00366204
0.00365555
0.00364853
0.00364101
0.00363298
0.00362449
0.00361553
0.00360615
0.00359636
0.00358619
0.00357564
0.00356473
0.00355347
0.00354187
0.00352993
0.00351766
0.00350508
0.00349221
0.00347907
0.0034657
0.00345209
0.00343825
0.00342419
0.00340989
0.00339535
0.0033806
0.00336548
0.00334973
0.00333272
0.00331272
0.00328516
1.94028e-07
1.74626e-06
1.60966e-05
5.21633e-05
9.61726e-05
0.00013474
0.000164436
0.000185801
0.000199971
0.000208153
0.00021243
0.000213856
0.000213417
0.000211895
0.000209823
0.000207495
0.000204984
0.000202213
0.000198947
0.00019516
0.000190671
0.000185286
0.000178761
0.000161049
0.000144653
0.00012966
0.000115536
0.000102978
9.35756e-05
9.03126e-05
9.1328e-05
9.40239e-05
0.000108297
0.000132148
0.000158405
0.000181422
0.000199047
0.0002063
0.000213445
0.000215514
0.000218918
0.000230872
0.0002507
0.00027882
0.000315512
0.000360081
0.000412305
0.000471333
0.000536983
0.00060792
0.000683024
0.000760601
0.00083969
0.000919657
0.000999861
0.00107986
0.00115918
0.00123711
0.00131352
0.00138922
0.00146305
0.00153527
0.0016057
0.00167439
0.00174136
0.00180663
0.00187028
0.00193234
0.0019929
0.00205201
0.00210976
0.00216623
0.00222147
0.00227554
0.0023285
0.00238038
0.00243119
0.00248094
0.00252965
0.00257734
0.00262401
0.00266969
0.00271437
0.00275808
0.00280083
0.00284266
0.00288359
0.00292366
0.00296287
0.0030012
0.00303867
0.0030753
0.00311109
0.00314607
0.00318023
0.00321358
0.00324614
0.00327792
0.00330892
0.00333916
0.00336863
0.00339734
0.00342528
0.00345244
0.00347884
0.00350445
0.00352928
0.00355332
0.00357658
0.00359905
0.00362073
0.00364161
0.0036617
0.00368099
0.00369949
0.0037172
0.00373412
0.00375025
0.0037656
0.00378016
0.00379394
0.00380694
0.00381918
0.00383065
0.00384137
0.00385134
0.00386057
0.00386916
0.00387692
0.00388397
0.00389031
0.00389596
0.0039008
0.00390501
0.00390858
0.00391146
0.00391368
0.00391525
0.00391618
0.00391648
0.00391616
0.00391523
0.00391372
0.00391162
0.00390895
0.00390572
0.00390194
0.00389762
0.00389276
0.00388737
0.00388146
0.00387502
0.00386807
0.00386063
0.0038527
0.00384432
0.00383551
0.00382628
0.00381666
0.00380665
0.00379627
0.00378552
0.00377441
0.00376293
0.00375111
0.00373895
0.00372649
0.00371373
0.0037007
0.00368741
0.00367387
0.00366008
0.00364605
0.00363178
0.00361727
0.00360241
0.00358707
0.00357076
0.0035521
0.00352803
4.12716e-07
3.85089e-06
2.99195e-05
7.81022e-05
0.000126307
0.000164575
0.000191101
0.000207695
0.000217469
0.000221713
0.000221925
0.000219729
0.00021629
0.000212375
0.000208426
0.00020462
0.000200889
0.000197102
0.00019291
0.000188386
0.000183146
0.000177333
0.00016607
0.00015185
0.000139995
0.000131207
0.000125839
0.000122408
0.000115558
0.000115213
0.000125579
0.000143021
0.000163774
0.000185123
0.000204215
0.000218802
0.000227453
0.000233396
0.000239311
0.000250005
0.000266904
0.000291716
0.000324719
0.000365534
0.000413681
0.000468426
0.000529317
0.000595716
0.000666976
0.000741844
0.00081913
0.000897717
0.000976946
0.00105633
0.00113542
0.00121377
0.0012907
0.00136688
0.00144178
0.00151527
0.00158715
0.00165745
0.00172613
0.00179325
0.00185885
0.00192298
0.0019857
0.00204707
0.00210715
0.00216591
0.00222351
0.00227999
0.00233542
0.00238983
0.00244327
0.0024958
0.0025475
0.00259834
0.00264815
0.0026969
0.00274458
0.00279121
0.00283678
0.00288131
0.00292482
0.00296734
0.00300889
0.00304946
0.0030891
0.00312786
0.00316577
0.00320284
0.00323909
0.00327453
0.00330916
0.00334301
0.00337607
0.00340836
0.00343988
0.00347063
0.00350059
0.00352978
0.00355819
0.00358582
0.00361266
0.00363872
0.00366399
0.00368847
0.00371216
0.00373505
0.00375716
0.00377846
0.00379898
0.0038187
0.00383763
0.00385577
0.00387312
0.00388968
0.00390547
0.00392047
0.0039347
0.00394816
0.00396086
0.0039728
0.00398398
0.00399442
0.00400417
0.0040132
0.00402147
0.00402903
0.00403589
0.00404206
0.00404747
0.00405226
0.00405639
0.00405985
0.00406266
0.00406484
0.00406638
0.00406732
0.00406765
0.00406739
0.00406656
0.00406515
0.0040632
0.00406069
0.00405766
0.00405409
0.00405
0.0040454
0.00404027
0.00403464
0.0040285
0.00402187
0.00401477
0.00400722
0.00399924
0.00399085
0.00398206
0.00397288
0.00396332
0.00395339
0.00394308
0.00393239
0.00392134
0.00390994
0.00389822
0.00388617
0.00387383
0.00386121
0.00384832
0.00383516
0.00382174
0.00380809
0.0037942
0.00378004
0.00376551
0.00375026
0.00373315
0.00371287
6.31245e-07
7.53635e-06
4.64884e-05
0.000101713
0.000150706
0.000187278
0.00021121
0.000224471
0.000229598
0.000229365
0.00022586
0.000220568
0.000214507
0.00020832
0.000202315
0.000196639
0.000190814
0.000185167
0.000179237
0.000173035
0.00016655
0.000159293
0.000151177
0.000142649
0.000134875
0.000129429
0.000128259
0.000132619
0.000142551
0.000157091
0.000173442
0.000191037
0.000208302
0.000223573
0.000235152
0.00024432
0.000253903
0.000265389
0.000281328
0.000303221
0.000332496
0.00036927
0.000413018
0.000463069
0.000518835
0.000579782
0.000645487
0.000715352
0.000788561
0.000864031
0.00094079
0.00101807
0.00109538
0.00117235
0.00124818
0.00132313
0.0013972
0.00146989
0.00154118
0.00161104
0.00167941
0.00174632
0.00181171
0.00187568
0.00193838
0.00199988
0.00206025
0.00211958
0.00217804
0.0022359
0.00229285
0.00234883
0.00240388
0.00245801
0.00251127
0.00256369
0.0026152
0.0026658
0.00271546
0.00276412
0.0028118
0.00285847
0.00290413
0.00294876
0.0029924
0.00303506
0.00307677
0.00311757
0.0031575
0.00319656
0.00323477
0.00327216
0.00330873
0.0033445
0.00337948
0.00341368
0.00344709
0.00347974
0.00351161
0.00354271
0.00357303
0.00360258
0.00363136
0.00365935
0.00368657
0.003713
0.00373865
0.00376352
0.0037876
0.00381089
0.0038334
0.00385512
0.00387606
0.00389621
0.00391557
0.00393416
0.00395197
0.003969
0.00398526
0.00400076
0.00401548
0.00402945
0.00404267
0.00405514
0.00406687
0.00407787
0.00408818
0.00409776
0.00410662
0.00411478
0.00412226
0.00412905
0.00413514
0.00414061
0.00414541
0.00414956
0.00415308
0.00415598
0.00415826
0.00415996
0.00416106
0.0041616
0.00416158
0.00416101
0.0041599
0.00415827
0.00415612
0.00415347
0.00415031
0.00414664
0.00414248
0.00413781
0.00413264
0.004127
0.0041209
0.00411437
0.00410741
0.00410005
0.0040923
0.00408416
0.00407565
0.00406674
0.00405746
0.00404779
0.00403775
0.00402735
0.0040166
0.00400553
0.00399413
0.00398243
0.00397044
0.00395816
0.00394561
0.00393281
0.00391979
0.00390653
0.00389299
0.00387891
0.00386329
0.00384633
7.94828e-07
1.30972e-05
6.3542e-05
0.000124989
0.000174965
0.000208816
0.000228466
0.00023704
0.000238107
0.000234405
0.000227933
0.000220093
0.000211796
0.00020363
0.000195461
0.000187996
0.000180786
0.000173995
0.000167958