/*--------------------------------*- C++ -*----------------------------------*\
| =========                 |                                                 |
| \\      /  F ield         | OpenFOAM: The Open Source CFD Toolbox           |
|  \\    /   O peration     | Version:  2112                                  |
|   \\  /    A nd           | Website:  www.openfoam.com                      |
|    \\/     M anipulation  |                                                 |
\*---------------------------------------------------------------------------*/
FoamFile
{
    version     2.0;
    format      ascii;
    arch        "LSB;label=32;scalar=64";
    class       volScalarField;
    location    "383";
    object      omega;
}
// * * * * * * * * * * * * * * * * * * * * * * * * * * * * * * * * * * * * * //

dimensions      [0 0 -1 0 0 0 0];

internalField   nonuniform List<scalar> 
12225
(
37566.3
40214
41824.6
42640.4
42940.7
42905.3
42789.4
42548.2
42277.4
42010.8
41760.8
41526.4
41323.3
41126.6
40979.1
40810.8
40728.1
40575.9
4430.34
7010.48
9379.58
11218.4
12554.7
13458.3
14073.6
14489.9
14750.9
14979.2
15172.9
15410.9
15601.3
15829.8
15981.6
16173.5
16238.8
16373.2
1187.15
1353.35
1819.62
2328.17
2761.83
3185.41
3490.73
3805.42
4022.09
4334.27
4553.91
4856.82
5050.91
5326
5480.54
5723.98
5830.3
6042.93
609.853
628.53
722.76
868.559
997.491
1147.23
1257.96
1390.4
1479.51
1603.75
1685.49
1802.42
1873.15
1979.94
2037.2
2132.48
2173.04
2267.94
473.74
479.352
501.447
549.3
593.002
650.942
695.047
750.842
789.695
841.069
875.562
923.629
953.818
998.402
1023.4
1064.15
1082.15
1123.76
444.458
444.596
450.656
462.027
476.035
498.406
516.112
540.271
558.078
581.658
598.379
621.056
636.213
657.746
670.563
690.756
700.099
720.774
439.701
438.193
438.294
439.195
442.083
448.399
454.16
463.529
470.707
481.016
488.678
499.37
506.883
517.54
524.19
534.516
539.513
550.162
439.137
436.848
435.095
433.75
433.239
433.622
434.332
436.52
438.321
441.769
444.424
448.674
451.754
456.443
459.464
464.278
466.69
471.824
439.026
436.804
434.692
432.84
431.117
429.88
428.758
428.218
427.823
427.914
428.151
428.838
429.476
430.802
431.686
433.301
434.123
436.019
438.996
436.809
434.666
432.724
430.805
429.134
427.506
426.148
424.852
423.846
422.888
422.256
421.625
421.333
420.994
420.926
420.704
420.883
438.994
436.797
434.667
432.695
430.773
429.006
427.284
425.721
424.197
422.842
421.52
420.384
419.266
418.35
417.41
416.693
415.868
415.315
438.997
436.788
434.666
432.679
430.765
428.975
427.247
425.637
424.077
422.634
421.234
419.953
418.705
417.583
416.474
415.496
414.504
413.647
438.999
436.781
434.664
432.667
430.758
428.957
427.232
425.605
424.044
422.573
421.159
419.832
418.553
417.357
416.201
415.124
414.078
413.105
439
436.777
434.661
432.658
430.75
428.942
427.218
425.584
424.023
422.542
421.127
419.784
418.499
417.28
416.112
415.004
413.942
412.934
439.001
436.774
434.659
432.652
430.743
428.931
427.206
425.567
424.005
422.519
421.102
419.754
418.466
417.24
416.069
414.953
413.885
412.868
439.001
436.773
434.656
432.647
430.737
428.922
427.196
425.553
423.989
422.501
421.082
419.73
418.44
417.211
416.037
414.917
413.847
412.827
439.001
436.772
434.655
432.644
430.732
428.915
427.187
425.542
423.976
422.485
421.064
419.71
418.418
417.186
416.01
414.889
413.816
412.794
439
436.769
434.65
432.637
430.723
428.904
427.174
425.527
423.959
422.466
421.043
419.687
418.393
417.159
415.982
414.858
413.785
412.76
439
436.771
434.653
432.64
430.727
428.908
427.178
425.531
423.963
422.469
421.045
419.688
418.394
417.159
415.981
414.857
413.783
412.758
439.001
436.772
434.654
432.643
430.731
428.912
427.183
425.536
423.968
422.475
421.051
419.694
418.4
417.166
415.988
414.863
413.79
412.765
439.001
436.772
434.657
432.645
430.735
428.917
427.189
425.542
423.976
422.483
421.062
419.705
418.413
417.18
416.005
414.882
413.812
412.789
439.003
436.773
434.661
432.649
430.743
428.925
427.203
425.558
424
422.51
421.101
419.753
418.48
417.26
416.111
415.008
413.972
412.974
439.004
436.774
434.668
432.654
430.773
428.976
427.304
425.699
424.205
422.779
421.469
420.226
419.1
418.024
417.07
416.138
415.337
414.527
438.991
436.808
434.673
432.749
431.11
429.659
428.465
427.292
426.302
425.376
424.71
424.191
423.876
423.699
423.636
423.661
423.826
423.891
438.941
437.507
435.13
434.166
434.718
436.017
437.761
439.123
440.704
442.045
444.192
446.376
449.396
452.016
455.362
458.062
461.519
464.079
441.497
448.047
442.309
450.768
463.921
474.012
484.598
493.73
504.762
514.726
526.664
537.025
549.042
558.928
570.417
579.405
590.202
598.112
493.541
486.251
500.241
548.747
603.33
646.725
689.43
725.72
765.208
798.723
836
866.147
900.138
926.111
956.508
978.497
1006
1025.12
870.635
830.59
946.64
1128.88
1319.52
1488.1
1647.38
1779.9
1909.45
2012.22
2117.6
2196.22
2281.95
2341.34
2412.76
2458.42
2522.98
2566.52
3290.72
3515.13
4374.01
5259.75
6038.91
6685.89
7207.76
7617.33
7944.78
8184.88
8390.33
8533.39
8671.29
8763.24
8877.78
8950.37
9063.77
9129.4
23148.6
24553.5
25592.5
26333.9
26822.6
27141.3
27311.9
27410.1
27417
27400.4
27360.5
27294.6
27220
27140
27059.7
26980.7
26903.5
26829.2
11463.3
2514.65
2517.47
2520.67
2524.12
2527.82
2532.53
2538.88
2547.26
2557.49
2568.36
2579.37
2589.8
2599.29
2607.75
2615.07
2621.25
2626.27
2630.27
2632.8
2634.64
2636.01
2635.71
2633.63
2629.55
2623.3
2615.03
2605.48
2596.32
2590.07
2588.15
2589.62
2592.38
2595.32
2598.33
2601.38
2604.46
2607.55
2610.72
2614.8
2620.16
2629.15
2639.96
2649.5
2656.15
2659.1
2660.74
2661.33
2661.83
2663.15
2667.17
2675.38
2683.75
2690.4
2700.44
2718.45
2792.5
2983
3190.21
3380.92
3551.6
3705.18
3844.23
3972.06
4090.88
4203.33
4308.72
4405.76
4497.14
4582.74
4664.07
4741.29
4815.32
4886.42
4955.1
5021.57
5086.1
5148.94
5210.2
5270.07
5328.6
5385.92
5442.05
5497.08
5551.02
5603.92
5655.77
5706.58
5756.36
5805.09
5852.75
5899.31
5944.73
5988.99
6032.03
6073.82
6114.34
6153.6
6191.66
6228.68
6264.96
6300.45
6334.83
6368.28
6400.75
6432.23
6462.72
6492.2
6520.68
6548.11
6574.51
6599.86
6624.16
6647.39
6669.55
6690.64
6710.65
6729.59
6747.45
6764.23
6779.94
6794.57
6808.14
6820.65
6832.09
6842.48
6852.13
6861.31
6868.62
6875.21
6880.02
6883.82
6886.39
6888.01
6888.92
6888.71
6887.83
6885.7
6882.45
6878.43
6873.41
6867.56
6860.8
6853.21
6844.8
6835.63
6825.82
6814.96
6803.75
6791.35
6778.8
6764.98
6751.18
6736.09
6721.25
6705.09
6689.41
6672.36
6655.99
6638.27
6621.24
6602.99
6585.3
6566.68
6548.21
6529.42
6510.55
6491.59
6472.57
6453.5
6434.35
6415.06
6395.56
6375.66
6355.16
6333.71
6312.11
6300.8
6290.93
6186.21
11463.5
2000.68
1056.41
895.114
778.661
655.977
665.762
681.812
676.653
658.539
632.713
606.266
581.185
557.783
538.666
524.328
515.317
510.21
515.012
522.791
563.183
626.231
716.148
821.813
937.76
1053.79
1164.56
1253.39
1321.4
1333.32
1310.64
1243.04
1108.21
944.26
793.699
690.95
613.381
539.248
489.108
457.618
447.056
451.751
463.302
481.113
498.633
522.544
537.198
601.084
674.977
751.5
867.858
1164.33
1611.16
1977.56
2201.41
2332.9
2419.71
2464.58
2476.37
2442.01
2376.15
2303.58
2230.42
2163.94
2104.62
2054.21
2011.85
1977.45
1950.16
1929.08
1913.36
1902.1
1894.68
1890.92
1888.73
1887.82
1888.99
1891.4
1894.78
1898.86
1903.54
1908.63
1914.06
1919.71
1925.53
1931.45
1937.4
1943.35
1949.25
1955.06
1960.76
1966.32
1971.72
1976.98
1982.11
1987.17
1992.26
1997.55
2003.3
2009.95
2018.06
2026.76
2034.86
2042.95
2050.71
2058.29
2065.63
2072.75
2079.63
2086.29
2092.71
2098.91
2104.87
2110.6
2116.1
2121.37
2126.42
2131.23
2135.82
2140.18
2144.33
2148.25
2151.96
2155.45
2158.73
2161.81
2164.69
2167.31
2169.5
2171.27
2172.18
2172.81
2173.2
2173.35
2173.29
2173.11
2172.76
2172.15
2171.28
2170.22
2168.93
2167.45
2165.78
2163.93
2161.94
2159.89
2156.92
2155.03
2151.25
2149.21
2144.98
2142.72
2138.09
2135.61
2130.65
2127.97
2122.73
2119.85
2114.4
2111.28
2105.72
2102.25
2096.75
2092.59
2087.7
2082.92
2078.06
2073.15
2068.2
2063.23
2058.24
2053.25
2048.26
2043.32
2038.51
2033.97
2030.13
2029.54
2030.49
2044.48
11463.5
2043.9
828.244
636.84
664.869
739.573
725.382
680.667
617.938
555.589
498.895
449.146
406.511
373.32
347.529
327.61
312.511
301.306
293.799
288.9
290.441
295.141
308.861
332.723
368.978
417.197
478.867
548.464
622.741
687.945
738.571
766.673
760.01
731.651
674.835
598.046
522.081
443.186
389.551
360.621
362.419
375.705
394.008
411.198
428.694
485.606
586.859
741.258
979.13
1261.99
1456.94
1594.03
1720.59
1782.61
1789.57
1760.84
1711.57
1644.39
1570.32
1496.96
1431.82
1376.58
1330.92
1294.43
1265.57
1243.35
1226.4
1213.82
1204.69
1198.32
1194.14
1192.14
1191.03
1190.82
1191.67
1193.11
1195.19
1197.64
1200.43
1203.47
1206.71
1210.09
1213.58
1217.15
1220.77
1224.41
1228.07
1231.71
1235.34
1238.95
1242.53
1246.08
1249.61
1253.14
1256.69
1260.29
1263.98
1267.81
1271.83
1276.06
1280.42
1284.69
1288.79
1292.81
1296.68
1300.44
1304.07
1307.57
1310.95
1314.19
1317.31
1320.3
1323.15
1325.88
1328.48
1330.94
1333.27
1335.48
1337.55
1339.5
1341.31
1342.99
1344.55
1345.97
1347.26
1348.42
1349.43
1350.26
1350.9
1351.33
1351.52
1351.58
1351.51
1351.37
1351.12
1350.74
1350.24
1349.61
1348.84
1347.95
1346.95
1345.84
1344.61
1343.28
1341.84
1340.29
1338.54
1336.88
1334.82
1333.01
1330.72
1328.78
1326.28
1324.19
1321.5
1319.28
1316.42
1314.07
1311.07
1308.58
1305.46
1302.81
1299.62
1296.74
1293.65
1290.55
1287.39
1284.21
1280.99
1277.75
1274.5
1271.27
1268.07
1264.95
1261.99
1259.35
1257.28
1257
1258.75
1270.76
11463.5
2023.79
965.536
985.703
972.219
875.076
750.831
633.17
534.835
459.404
402.048
357.102
322.047
295.178
274.614
258.817
246.668
237.46
230.727
226.093
223.519
223.633
226.096
230.603
240.648
256.485
279.832
311.678
351.205
393.868
437.042
475.1
504.422
513.129
506.343
485.554
451.203
402.678
387.84
417.648
482.618
539.916
586.065
636.619
714.936
847.655
1028.44
1209.85
1324.29
1390.58
1442.72
1468.8
1455.47
1373.87
1336.24
1271.16
1215.75
1158.81
1110.86
1068.7
1034.62
1007.07
985.585
969.131
956.791
947.793
941.42
937.111
934.453
933.35
932.942
933.278
934.337
935.859
937.82
940.083
942.611
945.33
948.209
951.208
954.302
957.466
960.683
963.936
967.211
970.498
973.788
977.073
980.35
983.616
986.871
990.117
993.357
996.599
999.851
1003.12
1006.41
1009.74
1013.08
1016.43
1019.73
1022.93
1026.04
1029.06
1031.97
1034.79
1037.51
1040.13
1042.65
1045.06
1047.37
1049.57
1051.67
1053.66
1055.54
1057.31
1058.98
1060.53
1061.98
1063.31
1064.54
1065.65
1066.65
1067.54
1068.31
1068.96
1069.48
1069.87
1070.12
1070.23
1070.21
1070.08
1069.85
1069.52
1069.09
1068.56
1067.92
1067.17
1066.32
1065.37
1064.32
1063.17
1061.93
1060.59
1059.16
1057.62
1055.98
1054.29
1052.46
1050.61
1048.6
1046.61
1044.45
1042.32
1040
1037.75
1035.3
1032.92
1030.34
1027.85
1025.16
1022.56
1019.78
1017.06
1014.25
1011.4
1008.52
1005.61
1002.67
999.712
996.75
993.803
990.896
988.072
985.4
982.998
981.06
980.297
981.278
988.124
11463.6
2189.23
1460.72
1292.48
1053.21
829.08
645.703
515.025
424.638
360.98
315.161
282.051
258.395
240.716
227.071
216.433
208.185
201.84
197.103
193.789
191.769
191.478
192.297
194.117
198.412
205.399
216.023
231.349
252.748
279.199
308.112
336.73
363.498
384.338
394.31
390.58
389.294
408.441
485.997
585.782
653.94
718.625
800.381
906.402
1018.59
1111.8
1179.55
1233.5
1263.03
1268.64
1227.12
1163.58
1117.29
1064.2
1023.9
977.296
941.487
907.665
880.663
858.038
840.411
826.768
816.646
809.39
804.417
801.298
799.849
799.349
799.546
800.634
802.199
804.194
806.547
809.163
812.002
815.009
818.154
821.405
824.74
828.139
831.586
835.068
838.573
842.092
845.615
849.137
852.652
856.154
859.641
863.11
866.561
869.993
873.406
876.801
880.178
883.536
886.87
890.174
893.433
896.636
899.764
902.804
905.757
908.62
911.391
914.068
916.649
919.133
921.516
923.799
925.979
928.055
930.026
931.891
933.648
935.297
936.836
938.264
939.582
940.789
941.882
942.862
943.727
944.475
945.105
945.615
946.001
946.258
946.383
946.396
946.283
946.062
945.734
945.3
944.76
944.116
943.364
942.506
941.543
940.478
939.312
938.046
936.683
935.223
933.669
932.014
930.269
928.441
926.514
924.521
922.431
920.287
918.045
915.758
913.373
910.952
908.434
905.89
903.25
900.593
897.846
895.089
892.252
889.399
886.496
883.556
880.582
877.58
874.556
871.526
868.499
865.49
862.521
859.628
856.871
854.343
852.186
850.818
850.876
854.115
11463.6
2852.23
1858.48
1353.67
956.072
677.758
512.116
405.319
337.531
293.917
264.273
242.886
226.57
213.647
203.235
194.777
187.952
182.569
178.506
175.669
174.008
173.717
174.308
175.841
179
183.848
190.891
200.809
214.575
232.634
253.887
276.317
297.226
318.256
340.551
381.976
455.436
569.782
665.956
740.627
814.339
891.681
963.112
1018.97
1063.07
1098.24
1114.72
1111.55
1061.88
1019.99
979.248
937.598
901.926
866.156
836.695
808.5
786.125
766.564
751.196
739.027
729.978
723.51
719.198
716.907
716.022
715.939
716.942
718.621
720.826
723.487
726.466
729.704
733.148
736.751
740.48
744.306
748.209
752.17
756.173
760.207
764.259
768.321
772.384
776.442
780.487
784.516
788.523
792.504
796.456
800.377
804.263
808.113
811.926
815.699
819.429
823.113
826.744
830.314
833.811
837.233
840.569
843.815
846.968
850.028
852.989
855.852
858.611
861.266
863.814
866.253
868.581
870.796
872.897
874.882
876.748
878.496
880.123
881.629
883.013
884.275
885.412
886.424
887.309
888.066
888.695
889.194
889.562
889.791
889.874
889.855
889.702
889.425
889.028
888.512
887.879
887.129
886.263
885.282
884.186
882.978
881.66
880.234
878.701
877.063
875.323
873.479
871.537
869.5
867.368
865.151
862.847
860.466
858
855.464
852.847
850.168
847.413
844.603
841.724
838.798
835.81
832.785
829.707
826.594
823.439
820.248
817.024
813.775
810.507
807.233
803.964
800.714
797.503
794.362
791.34
788.513
785.988
784.043
783.082
784.048
11464.1
3552.93
1960.35
1199.54
760.092
528.541
403.606
335.286
292.802
263.93
242.65
226.086
212.666
201.496
192.075
184.148
177.606
172.393
168.468
165.762
164.281
164.082
164.753
166.512
169.588
174.114
180.492
189.293
201.216
216.857
236.518
260.924
293.309
334.421
397.183
501.574
617.653
707.305
780.847
846.541
899.838
938.631
969.131
992.352
1000.53
986.174
947.968
914.412
879.45
849.469
819.388
790.64
764.99
741.561
721.811
704.505
690.614
679.296
670.733
664.508
660.367
658.276
657.565
657.851
659.268
661.43
664.255
667.562
671.246
675.226
679.428
683.803
688.312
692.921
697.607
702.349
707.133
711.943
716.768
721.597
726.422
731.236
736.03
740.8
745.539
750.244
754.91
759.532
764.109
768.635
773.108
777.526
781.885
786.184
790.418
794.583
798.677
802.693
806.628
810.474
814.224
817.873
821.419
824.858
828.188
831.406
834.509
837.493
840.356
843.095
845.708
848.194
850.548
852.771
854.86
856.813
858.628
860.304
861.838
863.228
864.477
865.584
866.549
867.371
868.049
868.582
868.971
869.201
869.282
869.245
869.06
868.737
868.278
867.684
866.957
866.093
865.095
863.967
862.711
861.329
859.824
858.198
856.453
854.592
852.616
850.527
848.33
846.027
843.621
841.119
838.523
835.839
833.067
830.214
827.278
824.267
821.184
818.035
814.82
811.548
808.221
804.848
801.428
797.967
794.466
790.931
787.364
783.774
780.168
776.557
772.953
769.369
765.823
762.34
758.964
755.751
752.78
750.24
748.332
747.618
11470.7
3802.8
1780.19
943.05
586.172
425.371
344.306
297.075
266.637
245.18
229.072
216.061
204.997
195.323
186.824
179.441
173.171
168.073
164.254
161.827
160.781
161.043
162.452
165.254
169.445
175.025
182.523
192.816
206.641
225.637
253.068
293.664
356.354
451.152
555.707
642.387
714.531
777.821
828.039
864.644
892.422
907.073
910.462
889.779
860.945
832.847
804.986
780.821
757.17
735.04
713.118
692.969
675.193
659.691
646.727
636.01
627.661
621.399
617.105
614.81
614.004
614.281
615.795
618.215
621.425
625.246
629.562
634.259
639.253
644.475
649.869
655.392
661.011
666.698
672.433
678.197
683.978
689.762
695.539
701.297
707.03
712.729
718.388
724.002
729.565
735.073
740.521
745.906
751.225
756.471
761.643
766.738
771.752
776.682
781.526
786.281
790.943
795.513
799.984
804.346
808.592
812.719
816.724
820.604
824.356
827.977
831.463
834.813
838.021
841.087
844.007
846.779
849.402
851.873
854.19
856.352
858.357
860.204
861.891
863.419
864.786
865.992
867.036
867.918
868.638
869.195
869.59
869.804
869.865
869.779
869.531
869.126
868.568
867.858
866.998
865.991
864.836
863.538
862.097
860.518
858.802
856.951
854.97
852.86
850.625
848.266
845.788
843.194
840.488
837.676
834.761
831.75
828.644
825.447
822.163
818.799
815.357
811.844
808.264
804.622
800.923
797.175
793.38
789.543
785.666
781.754
777.813
773.849
769.873
765.893
761.922
757.972
754.059
750.204
746.417
742.761
739.301
736.169
733.456
731.35
11490.8
3713.35
1456.92
745.658
489.696
379.215
320.457
284.011
259.67
241.581
226.944
214.641
203.974
194.583
186.341
179.258
173.422
168.926
165.892
164.211
163.874
164.875
167.292
171.471
177.948
187.052
200.351
219.431
245.976
283.895
339.009
416.601
502.822
579.008
643.996
700.129
747.868
786.731
817.413
832.011
834.046
815.445
791.399
767.703
745.142
725.215
706.745
689.544
672.37
655.73
639.907
625.791
613.607
603.366
595.097
588.701
584.119
581.399
580.316
580.289
581.616
583.993
587.317
591.418
596.168
601.443
607.14
613.17
619.459
625.951
632.591
639.338
646.159
653.026
659.917
666.814
673.708
680.585
687.43
694.234
700.988
707.685
714.319
720.885
727.376
733.788
740.113
746.342
752.475
758.516
764.463
770.312
776.061
781.705
787.242
792.668
797.978
803.169
808.233
813.166
817.962
822.619
827.133
831.5
835.718
839.784
843.695
847.446
851.035
854.458
857.713
860.798
863.711
866.45
869.013
871.398
873.603
875.628
877.471
879.131
880.608
881.902
883.012
883.939
884.683
885.244
885.618
885.792
885.804
885.637
885.291
884.769
884.075
883.21
882.176
880.976
879.613
878.088
876.406
874.568
872.579
870.441
868.157
865.731
863.167
860.467
857.636
854.678
851.596
848.396
845.085
841.667
838.147
834.527
830.815
827.015
823.134
819.177
815.15
811.057
806.904
802.7
798.448
794.152
789.816
785.446
781.049
776.632
772.203
767.775
763.357
758.962
754.603
750.301
746.078
741.979
738.045
734.374
730.996
727.814
11522
3268.3
1160.68
619.699
434.707
350.798
305.559
277.712
257.419
241.928
229.479
218.758
209.188
200.607
193.07
186.725
181.776
178.348
176.652
176.464
178.028
181.094
186.283
194.626
207.09
224.601
251.256
289.239
340.243
401.877
466.143
526.252
581.418
630.148
672.562
708.616
740.14
758.928
763.683
752.326
734.099
713.862
694.869
678.312
663.595
650.21
637.241
624.365
611.469
599.127
587.848
578.075
569.929
563.427
558.558
555.314
553.773
553.443
554.388
556.495
559.689
563.824
568.784
574.442
580.684
587.404
594.513
601.93
609.591
617.458
625.459
633.551
641.7
649.875
658.044
666.18
674.241
682.229
690.167
698.053
705.875
713.625
721.295
728.88
736.374
743.77
751.063
758.253
765.331
772.284
779.109
785.802
792.361
798.783
805.064
811.202
817.192
823.029
828.714
834.241
839.608
844.81
849.844
854.706
859.394
863.904
868.234
872.38
876.338
880.105
883.678
887.056
890.236
893.217
895.997
898.574
900.947
903.114
905.075
906.828
908.375
909.714
910.846
911.772
912.492
913.007
913.306
913.399
913.3
913
912.501
911.806
910.919
909.841
908.575
907.125
905.494
903.684
901.7
899.545
897.222
894.735
892.088
889.286
886.332
883.23
879.985
876.601
873.083
869.436
865.668
861.784
857.788
853.687
849.487
845.194
840.817
836.359
831.828
827.228
822.565
817.848
813.082
808.27
803.42
798.537
793.629
788.704
783.77
778.839
773.921
769.027
764.171
759.372
754.65
750.039
745.57
741.318
737.28
733.111
11553.2
2739.98
965.06
558.433
412.803
342.98
303.881
279.5
262.874
250.166
239.547
230.217
221.923
214.715
208.819
204.426
202.175
201.76
203.56
207.432
213.778
222.803
236.099
254.914
280.199
313.107
352.55
396.547
442.657
488.265
531.433
571.076
606.816
638.359
666.894
687.815
695.714
692.735
681.213
666.449
651.156
637.325
625.414
614.979
605.274
595.775
586.129
576.376
566.816
557.95
550.172
543.726
538.699
535.095
533.107
532.453
533.006
534.827
537.799
541.827
546.82
552.677
559.317
566.622
574.471
582.771
591.435
600.379
609.514
618.715
628.038
637.462
646.951
656.468
665.975
675.441
684.856
694.205
703.468
712.644
721.71
730.663
739.497
748.21
756.794
765.242
773.547
781.699
789.693
797.525
805.195
812.701
820.04
827.209
834.206
841.027
847.671
854.134
860.415
866.511
872.416
878.128
883.642
888.955
894.065
898.97
903.666
908.15
912.418
916.468
920.295
923.899
927.279
930.431
933.357
936.054
938.521
940.755
942.758
944.528
946.065
947.371
948.446
949.292
949.908
950.295
950.446
950.376
950.084
949.571
948.84
947.892
946.732
945.364
943.789
942.012
940.036
937.866
935.505
932.957
930.228
927.32
924.239
920.989
917.575
914.003
910.276
906.4
902.38
898.222
893.933
889.519
884.987
880.343
875.597
870.754
865.824
860.811
855.721
850.559
845.332
840.049
834.715
829.335
823.918
818.471
813.003
807.52
802.032
796.549
791.082
785.642
780.242
774.899
769.633
764.471
759.436
754.586
749.909
744.849
11576.7
2244.31
844.593
519.009
398.053
340.224
308.133
288.322
274.569
264.027
255.373
248.085
242.115
237.621
235.383
235.004
237.171
242.02
249.024
258.003
270.161
286.727
307.844
333.298
362.399
394.078
426.955
460.038
492.441
523.342
551.708
577.713
602.118
622.37
632.316
634.084
629.097
620.856
610.369
600.059
590.79
582.751
575.596
568.835
562.068
555.11
547.974
540.894
534.232
528.368
523.58
519.997
517.835
517.015
517.328
518.973
521.885
525.97
531.107
537.205
544.166
551.87
560.139
568.937
578.283
588.108
598.328
608.865
619.655
630.679
641.837
653.065
664.316
675.557
686.72
697.754
708.635
719.347
729.876
740.215
750.391
760.415
770.294
780.027
789.606
799.022
808.26
817.308
826.161
834.813
843.266
851.518
859.568
867.411
875.046
882.47
889.682
896.681
903.464
910.03
916.373
922.49
928.377
934.031
939.451
944.635
949.58
954.283
958.742
962.952
966.912
970.619
974.074
977.275
980.222
982.914
985.351
987.53
989.451
991.115
992.523
993.675
994.573
995.22
995.614
995.76
995.652
995.3
994.705
993.87
992.798
991.492
989.956
988.194
986.209
984.007
981.591
978.965
976.135
973.106
969.881
966.466
962.866
959.086
955.132
951.01
946.725
942.284
937.69
932.951
928.074
923.063
917.931
912.684
907.331
901.882
896.342
890.718
885.016
879.24
873.399
867.497
861.544
855.547
849.515
843.458
837.383
831.298
825.211
819.133
813.073
807.042
801.056
795.129
789.28
783.533
777.902
772.436
767.132
761.243
11590.2
2030.43
813.371
512.185
399.014
346.86
318.917
301.921
290.433
282.05
275.75
271.151
268.564
267.796
269.092
272.955
279.271
287.803
298.359
311.635
327.747
346.481
367.436
390.038
413.634
437.592
461.389
484.441
506.046
526.776
546.87
564.302
574.673
578.268
578.313
575.434
570.229
564.279
558.281
552.858
548.03
543.606
539.318
534.948
530.398
525.71
521.057
516.712
512.986
510.182
508.764
508.374
509.105
511.025
514.048
518.142
523.11
529.075
536.115
544.15
553.087
562.836
573.346
584.52
596.245
608.437
620.992
633.816
646.834
660.009
673.247
686.442
699.531
712.428
725.075
737.439
749.504
761.266
772.741
783.964
794.984
805.83
816.518
827.057
837.437
847.635
857.628
867.391
876.918
886.207
895.26
904.074
912.649
920.98
929.064
936.9
944.487
951.824
958.913
965.75
972.33
978.651
984.708
990.501
996.027
1001.29
1006.28
1011
1015.45
1019.62
1023.51
1027.13
1030.46
1033.52
1036.3
1038.8
1041.02
1042.96
1044.62
1046
1047.1
1047.93
1048.48
1048.77
1048.78
1048.53
1048
1047.22
1046.17
1044.87
1043.32
1041.52
1039.47
1037.19
1034.67
1031.92
1028.94
1025.75
1022.34
1018.72
1014.89
1010.87
1006.65
1002.25
997.66
992.899
987.971
982.881
977.635
972.24
966.702
961.025
955.226
949.313
943.296
937.182
930.978
924.689
918.322
911.881
905.375
898.806
892.186
885.526
878.836
872.126
865.404
858.677
851.952
845.238
838.545
831.886
825.276
818.73
812.266
805.903
799.652
793.552
787.625
780.959
11598.7
1936.58
781.248
505.941
404.715
357.969
333.238
318.427
308.734
302.2
298.228
296.532
296.365
298.431
302.624
308.869
317.023
326.968
338.793
352.42
367.467
383.653
400.631
417.937
435.189
452.014
468.248
484.299
500.337
514.032
523.475
528.674
530.792
531.556
531.177
529.568
527.448
525.294
523.27
521.444
519.748
518.112
516.54
515.022
513.453
511.947
510.674
509.909
509.69
510.092
510.982
512.88
515.951
520.249
525.757
532.493
540.547
549.955
560.593
572.215
584.685
597.895
611.757
626.154
640.971
656.166
671.561
687.007
702.39
717.586
732.514
747.161
761.571
775.676
789.324
802.46
815.07
827.176
838.85
850.203
861.374
872.411
883.331
894.16
904.874
915.425
925.763
935.832
945.632
955.168
964.439
973.441
982.172
990.624
998.796
1006.68
1014.29
1021.61
1028.66
1035.42
1041.89
1048.07
1053.97
1059.57
1064.87
1069.88
1074.6
1079.03
1083.16
1086.99
1090.52
1093.75
1096.68
1099.31
1101.65
1103.69
1105.44
1106.88
1108.03
1108.89
1109.46
1109.73
1109.71
1109.42
1108.84
1107.97
1106.83
1105.42
1103.74
1101.79
1099.59
1097.12
1094.4
1091.43
1088.22
1084.78
1081.1
1077.2
1073.08
1068.74
1064.19
1059.44
1054.49
1049.36
1044.04
1038.54
1032.87
1027.04
1021.06
1014.92
1008.65
1002.24
995.705
989.066
982.326
975.491
968.566
961.559
954.475
947.32
940.101
932.82
925.49
918.127
910.742
903.343
895.938
888.534
881.137
873.753
866.393
859.073
851.81
844.616
837.509
830.507
823.619
816.875
810.333
802.935
11602.2
1909.88
779.35
512.515
416.128
372.69
350.133
336.566
327.794
322.471
320.038
319.468
320.992
324.632
329.972
336.833
345.062
354.538
365.119
376.599
388.735
401.288
413.995
426.625
439.001
450.98
462.351
472.29
480.093
486.212
491.202
495.085
498.198
501.105
503.63
505.796
507.766
509.626
511.4
513.099
514.713
516.157
517.255
518.022
518.936
520.185
521.942
524.388
527.631
531.815
537.212
543.798
551.647
560.786
571.181
582.837
595.84
610.278
626.002
642.473
659.519
677.005
694.813
712.821
730.894
748.86
766.67
784.237
801.454
818.203
834.375
849.893
864.73
878.813
892.074
904.526
916.162
927.012
937.279
947.197
957.205
967.276
977.357
987.545
997.76
1007.89
1017.84
1027.57
1037.04
1046.25
1055.18
1063.82
1072.16
1080.21
1087.94
1095.36
1102.46
1109.26
1115.75
1121.94
1127.82
1133.39
1138.64
1143.57
1148.2
1152.51
1156.51
1160.21
1163.59
1166.66
1169.43
1171.87
1174.01
1175.83
1177.35
1178.57
1179.49
1180.09
1180.4
1180.39
1180.12
1179.52
1178.63
1177.45
1175.99
1174.25
1172.23
1169.93
1167.36
1164.52
1161.42
1158.06
1154.44
1150.58
1146.47
1142.13
1137.56
1132.76
1127.75
1122.52
1117.09
1111.45
1105.62
1099.6
1093.39
1087.02
1080.48
1073.78
1066.94
1059.96
1052.84
1045.63
1038.31
1030.89
1023.37
1015.76
1008.06
1000.28
992.427
984.51
976.536
968.501
960.426
952.33
944.219
936.103
927.986
919.875
911.777
903.694
895.641
887.637
879.7
871.844
864.082
856.429
848.896
841.501
834.35
826.261
11603.1
1882.44
777.249
522.091
430.032
388.258
366.921
354.14
345.834
341.198
339.299
339.031
341.057
344.873
350.053
356.341
363.55
371.579
380.296
389.569
399.278
409.333
419.689
429.873
439.633
448.669
457.175
465.143
472.521
479.471
486.085
492.314
498.073
503.127
507.971
512.674
517.308
521.924
526.565
531.297
536.208
541.305
546.713
552.604
559.045
566.179
574.125
582.978
592.826
603.777
615.965
629.391
644.124
660.193
677.28
695.215
713.838
732.842
751.981
771.387
790.999
810.726
830.468
850.124
869.587
888.745
907.511
925.805
943.543
960.626
976.937
992.283
1006.45
1019.49
1031.62
1042.93
1053.48
1063.3
1072.44
1081.04
1089.31
1097.38
1105.45
1114.11
1122.99
1131.85
1140.55
1149.06
1157.34
1165.33
1173.03
1180.43
1187.53
1194.3
1200.75
1206.86
1212.65
1218.11
1223.26
1228.1
1232.64
1236.85
1240.74
1244.31
1247.57
1250.51
1253.15
1255.49
1257.52
1259.25
1260.68
1261.79
1262.59
1263.09
1263.29
1263.21
1262.86
1262.18
1261.21
1259.95
1258.41
1256.58
1254.46
1252.07
1249.41
1246.47
1243.27
1239.81
1236.09
1232.11
1227.87
1223.39
1218.67
1213.71
1208.52
1203.1
1197.47
1191.62
1185.57
1179.31
1172.86
1166.22
1159.39
1152.38
1145.2
1137.86
1130.36
1122.72
1114.93
1107.02
1098.99
1090.87
1082.66
1074.35
1065.95
1057.46
1048.88
1040.24
1031.52
1022.75
1013.93
1005.09
996.242
987.378
978.507
969.635
960.768
951.914
943.081
934.271
925.502
916.797
908.171
899.634
891.201
882.884
874.695
866.641
858.878
850.135
11599.8
1865.82
781.013
532.866
442.598
402.195
381.824
369.4
361.385
357.18
355.538
355.38
357.517
361.243
366.271
372.379
379.436
387.422
396.051
405.242
414.87
424.571
434.206
443.906
453.722
463.839
474.078
484.278
494.421
504.6
514.832
525.092
535.414
545.98
556.689
567.557
578.616
589.886
601.399
613.191
625.269
637.741
650.762
664.457
678.863
694.087
710.17
727.067
744.749
763.208
782.459
802.613
823.39
844.296
865.381
886.541
907.635
928.486
948.957
969.018
988.636
1007.77
1026.37
1044.4
1061.83
1078.61
1094.72
1110.14
1124.88
1138.89
1152.18
1164.74
1176.49
1187.33
1197.5
1207.09
1216.17
1224.69
1232.65
1240.05
1246.73
1253.02
1259.46
1266.2
1272.87
1279.35
1285.57
1291.54
1297.24
1302.67
1307.83
1312.71
1317.31
1321.61
1325.62
1329.31
1332.72
1335.85
1338.7
1341.3
1343.62
1345.66
1347.41
1348.89
1350.09
1351.03
1351.7
1352.12
1352.26
1352.16
1351.8
1351.14
1350.23
1349.05
1347.62
1345.94
1344.02
1341.83
1339.37
1336.67
1333.71
1330.49
1327.03
1323.33
1319.39
1315.21
1310.8
1306.15
1301.27
1296.16
1290.83
1285.27
1279.5
1273.51
1267.33
1260.94
1254.35
1247.57
1240.61
1233.46
1226.13
1218.62
1210.95
1203.12
1195.12
1186.98
1178.69
1170.26
1161.7
1153
1144.19
1135.26
1126.23
1117.11
1107.88
1098.57
1089.18
1079.72
1070.19
1060.61
1050.98
1041.35
1031.71
1022.07
1012.41
1002.77
993.128
983.51
973.922
964.39
954.929
945.545
936.248
927.05
917.961
908.999
900.172
891.483
883.127
873.8
11593.6
1856.41
786.963
540.13
452.221
414.624
395.572
384.119
377.193
374.063
373.142
374.259
377.846
383.224
390.113
398.376
407.948
418.031
428.9
440.838
453.757
467.118
481.217
496.283
512.411
529.643
547.759
566.664
586.301
606.531
627.219
648.266
669.651
691.414
713.42
735.717
758.404
781.344
804.428
827.564
850.7
873.86
897.1
920.477
944.068
968.245
993.011
1017.78
1042.29
1066.37
1089.85
1112.35
1133.75
1154.15
1173.57
1192.04
1209.55
1226.08
1241.61
1256.18
1269.82
1282.56
1294.44
1305.51
1315.78
1325.28
1334.04
1342.12
1349.54
1356.37
1362.65
1368.6
1374.42
1380.08
1385.47
1390.49
1395.13
1399.12
1402.81
1406.37
1409.91
1413.9
1418.06
1421.58
1424.59
1427.27
1429.69
1431.9
1433.92
1435.76
1437.41
1438.85
1440.09