/*--------------------------------*- C++ -*----------------------------------*\
| =========                 |                                                 |
| \\      /  F ield         | OpenFOAM: The Open Source CFD Toolbox           |
|  \\    /   O peration     | Version:  2112                                  |
|   \\  /    A nd           | Website:  www.openfoam.com                      |
|    \\/     M anipulation  |                                                 |
\*---------------------------------------------------------------------------*/
FoamFile
{
    version     2.0;
    format      ascii;
    arch        "LSB;label=32;scalar=64";
    class       volScalarField;
    location    "383";
    object      p;
}
// * * * * * * * * * * * * * * * * * * * * * * * * * * * * * * * * * * * * * //

dimensions      [0 2 -2 0 0 0 0];

internalField   nonuniform List<scalar> 
12225
(
-4.30843
-5.17256
-5.55072
-5.66214
-5.778
-5.92005
-6.04875
-6.15521
-6.24708
-6.33127
-6.41251
-6.49223
-6.57118
-6.65114
-6.73453
-6.82594
-6.92782
-7.05322
-4.58892
-5.22636
-5.5432
-5.65005
-5.76253
-5.90033
-6.02673
-6.13278
-6.22593
-6.31266
-6.39564
-6.47604
-6.55496
-6.6342
-6.7158
-6.80298
-6.89334
-6.98468
-4.79579
-5.22405
-5.5195
-5.64901
-5.76694
-5.9015
-6.0252
-6.12975
-6.22228
-6.3087
-6.39071
-6.46957
-6.54656
-6.62325
-6.70082
-6.78044
-6.85688
-6.92055
-4.932
-5.24628
-5.52713
-5.66633
-5.77978
-5.90535
-6.02341
-6.12505
-6.21583
-6.30066
-6.38125
-6.45866
-6.53401
-6.60832
-6.68203
-6.75478
-6.82125
-6.87358
-5.04466
-5.28757
-5.54164
-5.68149
-5.79113
-5.91003
-6.02375
-6.12315
-6.21237
-6.29571
-6.37491
-6.45073
-6.52409
-6.59551
-6.66502
-6.73148
-6.79063
-6.83652
-5.14779
-5.33287
-5.55488
-5.6937
-5.8018
-5.91538
-6.02486
-6.12189
-6.20939
-6.29116
-6.36877
-6.44278
-6.51385
-6.58226
-6.64771
-6.70881
-6.76232
-6.80381
-5.24163
-5.38029
-5.57065
-5.70616
-5.81242
-5.92053
-6.02544
-6.11988
-6.20555
-6.28565
-6.36153
-6.43363
-6.50238
-6.56785
-6.62958
-6.68622
-6.7354
-6.77406
-5.326
-5.42969
-5.59083
-5.71999
-5.82333
-5.92576
-6.02585
-6.11742
-6.20102
-6.27923
-6.35319
-6.42325
-6.48961
-6.55223
-6.61058
-6.66351
-6.7094
-6.74621
-5.40172
-5.47987
-5.61488
-5.7353
-5.83479
-5.93158
-6.02666
-6.11498
-6.19621
-6.27225
-6.34407
-6.41192
-6.47583
-6.53568
-6.59097
-6.64081
-6.68414
-6.71969
-5.46976
-5.52942
-5.64177
-5.75202
-5.84686
-5.93815
-6.0281
-6.11283
-6.19138
-6.265
-6.33449
-6.39997
-6.46139
-6.51857
-6.57111
-6.61835
-6.65965
-6.69423
-5.53102
-5.57721
-5.67047
-5.76996
-5.85943
-5.94535
-6.03017
-6.11103
-6.18665
-6.25766
-6.32464
-6.38766
-6.44659
-6.50124
-6.5513
-6.59631
-6.63595
-6.66974
-5.5817
-5.61888
-5.69761
-5.78724
-5.87129
-5.95237
-6.03253
-6.10969
-6.18242
-6.2509
-6.31549
-6.37621
-6.43289
-6.48534
-6.53334
-6.57657
-6.61492
-6.64806
-5.62718
-5.65778
-5.7244
-5.80467
-5.88315
-5.95951
-6.03514
-6.10856
-6.17832
-6.24421
-6.30639
-6.36481
-6.41931
-6.46971
-6.51583
-6.5575
-6.5947
-6.62725
-5.67347
-5.69853
-5.75401
-5.82451
-5.89655
-5.96763
-6.03829
-6.10746
-6.17374
-6.23661
-6.29601
-6.35186
-6.40396
-6.45216
-6.49635
-6.53644
-6.57249
-6.60443
-5.71888
-5.73932
-5.78509
-5.84602
-5.911
-5.97635
-6.04172
-6.10622
-6.16857
-6.22803
-6.28436
-6.33738
-6.38692
-6.43284
-6.47507
-6.51358
-6.54849
-6.57978
-5.76088
-5.77759
-5.81539
-5.86757
-5.9254
-5.98484
-6.04482
-6.10446
-6.16259
-6.21838
-6.27143
-6.32149
-6.3684
-6.41202
-6.45232
-6.4893
-6.52308
-6.5537
-5.79589
-5.80977
-5.84146
-5.88639
-5.9377
-5.99151
-6.04638
-6.10131
-6.15526
-6.20737
-6.25715
-6.30429
-6.34863
-6.39006
-6.42853
-6.46407
-6.49678
-6.52673
-5.81858
-5.8306
-5.85826
-5.89813
-5.9445
-5.99379
-6.04443
-6.0954
-6.14572
-6.19457
-6.24142
-6.28596
-6.32802
-6.3675
-6.40436
-6.43864
-6.47041
-6.49976
-5.82059
-5.83195
-5.85825
-5.89625
-5.94044
-5.98737
-6.03557
-6.08413
-6.13213
-6.17878
-6.22359
-6.26628
-6.30671
-6.34479
-6.38051
-6.41391
-6.44506
-6.47406
-5.79446
-5.80721
-5.83634
-5.87733
-5.92357
-5.97158
-6.02035
-6.06917
-6.11715
-6.16351
-6.20788
-6.25008
-6.29
-6.32762
-6.36294
-6.39603
-6.42697
-6.45589
-5.75546
-5.77094
-5.80576
-5.85273
-5.90319
-5.95396
-6.00484
-6.05536
-6.1045
-6.15158
-6.19635
-6.23877
-6.27879
-6.31643
-6.35174
-6.38484
-6.41582
-6.44483
-5.7046
-5.72496
-5.76928
-5.82515
-5.88118
-5.93556
-5.98953
-6.04262
-6.09358
-6.14184
-6.18742
-6.23039
-6.27078
-6.30865
-6.34411
-6.37732
-6.40842
-6.43759
-5.64355
-5.67206
-5.73068
-5.79773
-5.85955
-5.91784
-5.97554
-6.03165
-6.08462
-6.13422
-6.18079
-6.22447
-6.26533
-6.30347
-6.3391
-6.37243
-6.40363
-6.43293
-5.57266
-5.61475
-5.69362
-5.77276
-5.83938
-5.90167
-5.96362
-6.02286
-6.07772
-6.12862
-6.17618
-6.22056
-6.26185
-6.30023
-6.33598
-6.36938
-6.40064
-6.43007
-5.49131
-5.55555
-5.66178
-5.75197
-5.82117
-5.88732
-5.95379
-6.01602
-6.07257
-6.12466
-6.17316
-6.21817
-6.25978
-6.29826
-6.33399
-6.36731
-6.39847
-6.42785
-5.39914
-5.49683
-5.6369
-5.7358
-5.80564
-5.8752
-5.94558
-6.01009
-6.06794
-6.12113
-6.17057
-6.21625
-6.25825
-6.29692
-6.33268
-6.36595
-6.39712
-6.42673
-5.29781
-5.44332
-5.61596
-5.71897
-5.79049
-5.86503
-5.93916
-6.00528
-6.06396
-6.1179
-6.16792
-6.21394
-6.25601
-6.29462
-6.33014
-6.36299
-6.39381
-6.42339
-5.17914
-5.40966
-5.60311
-5.69653
-5.76925
-5.85185
-5.93193
-6.00133
-6.0624
-6.11843
-6.17012
-6.21726
-6.25996
-6.29895
-6.33469
-6.36737
-6.39786
-6.42799
-4.99567
-5.40279
-5.62829
-5.69996
-5.76358
-5.84697
-5.92781
-5.99679
-6.05771
-6.11408
-6.16631
-6.21387
-6.25674
-6.29541
-6.33064
-6.36286
-6.39257
-6.42041
-4.72678
-5.32913
-5.62112
-5.70029
-5.76824
-5.85763
-5.94238
-6.01313
-6.0749
-6.1319
-6.1845
-6.23207
-6.27449
-6.3116
-6.34434
-6.37432
-6.40153
-6.42368
-7.43055
-7.43069
-7.43079
-7.43091
-7.43089
-7.42985
-7.4268
-7.42189
-7.41668
-7.41255
-7.41114
-7.41334
-7.41884
-7.4267
-7.43583
-7.44522
-7.45401
-7.46145
-7.46697
-7.4703
-7.47173
-7.47177
-7.4707
-7.46879
-7.46645
-7.46414
-7.46227
-7.46108
-7.46055
-7.46045
-7.46041
-7.46015
-7.45966
-7.459
-7.45833
-7.45771
-7.45706
-7.45605
-7.45434
-7.45194
-7.44936
-7.44739
-7.44698
-7.44841
-7.45095
-7.45359
-7.45563
-7.45698
-7.45804
-7.45926
-7.46085
-7.46343
-7.46867
-7.475
-7.47858
-7.47671
-7.47173
-7.46908
-7.47689
-7.50014
-7.5411
-7.59902
-7.67118
-7.75379
-7.84255
-7.93306
-8.02154
-8.10529
-8.18265
-8.25265
-8.3149
-8.36938
-8.41627
-8.45588
-8.48858
-8.5147
-8.53456
-8.54843
-8.55654
-8.55906
-8.55613
-8.54785
-8.5343
-8.51553
-8.49157
-8.46242
-8.42808
-8.38855
-8.3438
-8.2938
-8.23852
-8.17793
-8.11201
-8.04071
-7.964
-7.88182
-7.79415
-7.701
-7.60252
-7.49876
-7.38948
-7.2743
-7.15323
-7.02647
-6.89405
-6.75602
-6.61239
-6.46322
-6.30852
-6.14836
-5.98278
-5.81186
-5.63567
-5.4543
-5.26785
-5.07642
-4.88011
-4.67907
-4.4734
-4.26327
-4.04882
-3.83021
-3.6076
-3.38116
-3.15107
-2.9175
-2.68065
-2.44078
-2.19816
-1.95297
-1.70518
-1.4549
-1.20242
-0.948044
-0.691984
-0.434454
-0.17566
0.0841769
0.344837
0.606105
0.86777
1.12962
1.39146
1.65308
1.91429
2.17489
2.43471
2.69355
2.95122
3.20756
3.46238
3.71551
3.96678
4.21602
4.46308
4.70782
4.9501
5.1898
5.42682
5.66104
5.89236
6.12066
6.34584
6.56779
6.78639
7.00154
7.21314
7.4211
7.62532
7.8257
8.02213
8.21449
8.40267
8.58656
8.76606
8.94111
9.11193
9.27847
9.44373
9.59857
-7.43212
-7.4324
-7.43301
-7.43387
-7.43434
-7.43373
-7.43139
-7.42761
-7.42408
-7.42259
-7.42393
-7.42814
-7.43478
-7.44302
-7.45197
-7.46082
-7.46896
-7.4759
-7.4814
-7.48523
-7.4871
-7.48685
-7.48471
-7.48112
-7.47668
-7.47207
-7.46793
-7.46473
-7.4626
-7.46131
-7.46036
-7.45939
-7.45849
-7.45799
-7.45792
-7.45798
-7.45785
-7.45724
-7.45583
-7.45371
-7.45159
-7.45041
-7.45084
-7.45277
-7.45528
-7.45738
-7.45854
-7.45851
-7.4582
-7.45866
-7.45818
-7.45575
-7.4544
-7.45976
-7.47157
-7.47944
-7.47923
-7.48006
-7.49228
-7.52158
-7.56984
-7.63535
-7.7142
-7.80116
-7.89116
-7.98005
-8.06484
-8.14364
-8.21546
-8.27988
-8.3369
-8.38669
-8.42956
-8.4658
-8.49574
-8.51966
-8.53778
-8.55032
-8.55742
-8.5592
-8.55576
-8.54716
-8.53343
-8.51461
-8.4907
-8.4617
-8.42759
-8.38836
-8.34397
-8.29441
-8.23962
-8.17959
-8.11427
-8.04361
-7.96759
-7.88614
-7.79921
-7.70674
-7.60862
-7.50477
-7.39524
-7.28027
-7.15986
-7.03386
-6.90225
-6.76504
-6.62226
-6.47391
-6.32005
-6.16072
-5.99598
-5.82588
-5.65051
-5.46995
-5.28429
-5.09364
-4.89811
-4.69782
-4.49291
-4.2835
-4.06976
-3.85183
-3.62989
-3.40408
-3.17459
-2.94157
-2.70521
-2.46566
-2.2231
-1.97777
-1.73001
-1.48003
-1.22794
-0.973935
-0.718226
-0.461016
-0.202516
0.0570511
0.317468
0.57852
0.839997
1.10169
1.36339
1.62491
1.88604
2.14659
2.40637
2.6652
2.9229
3.17928
3.43417
3.68739
3.93878
4.18816
4.43538
4.6803
4.92277
5.16269
5.39993
5.63438
5.86594
6.0945
6.31995
6.54218
6.76107
6.97653
7.18846
7.39675
7.60131
7.80205
7.99887
8.19165
8.38033
8.56483
8.74506
8.92096
9.09273
9.25972
9.42692
9.58125
-7.43373
-7.43377
-7.43395
-7.43426
-7.4346
-7.43468
-7.43458
-7.43498
-7.43676
-7.44043
-7.44598
-7.45304
-7.46114
-7.46969
-7.47814
-7.486
-7.49291
-7.49859
-7.50288
-7.50568
-7.5069
-7.5065
-7.50456
-7.50128
-7.49686
-7.49156
-7.48568
-7.47958
-7.47365
-7.46825
-7.46367
-7.46014
-7.45783
-7.45665
-7.45615
-7.45578
-7.45511
-7.45402
-7.45257
-7.45119
-7.45071
-7.45187
-7.45472
-7.45831
-7.46112
-7.46219
-7.46096
-7.45662
-7.45093
-7.44727
-7.44883
-7.45269
-7.45532
-7.46297
-7.47958
-7.50155
-7.52579
-7.55414
-7.59048
-7.63671
-7.69265
-7.75676
-7.82675
-7.90001
-7.97403
-8.04671
-8.11642
-8.18202
-8.24274
-8.29814
-8.34797
-8.39214
-8.43067
-8.46364
-8.49112
-8.51323
-8.53006
-8.5417
-8.54822
-8.54967
-8.54609
-8.53751
-8.52393
-8.50537
-8.48181
-8.45323
-8.41962
-8.38094
-8.33717
-8.28826
-8.23418
-8.17489
-8.11035
-8.04051
-7.96534
-7.88478
-7.79881
-7.70739
-7.61044
-7.50783
-7.39955
-7.2857
-7.16635
-7.04143
-6.91092
-6.77483
-6.63318
-6.48597
-6.33325
-6.17506
-6.01145
-5.84249
-5.66826
-5.48882
-5.30428
-5.11473
-4.92029
-4.72108
-4.51721
-4.30884
-4.09612
-3.87918
-3.65819
-3.43333
-3.20475
-2.97263
-2.73717
-2.49852
-2.25687
-2.01239
-1.7654
-1.5161
-1.26466
-1.01127
-0.75615
-0.499491
-0.241512
0.0175677
0.277536
0.538179
0.799284
1.06064
1.32205
1.58331
1.84421
2.10457
2.3642
2.62291
2.88051
3.13683
3.39169
3.64492
3.89634
4.14579
4.3931
4.63813
4.88074
5.1208
5.35819
5.5928
5.82453
6.05327
6.27891
6.50133
6.72042
6.93608
7.1482
7.35669
7.56144
7.76237
7.95939
8.15238
8.34123
8.52584
8.70625
8.88241
9.05486
9.22236
9.39229
9.54284
-7.43474
-7.43445
-7.43405
-7.43398
-7.43507
-7.43798
-7.44266
-7.44878
-7.45599
-7.46398
-7.47242
-7.481
-7.48943
-7.49747
-7.50486
-7.51137
-7.51683
-7.52107
-7.524
-7.52557
-7.52576
-7.52452
-7.52194
-7.51812
-7.51318
-7.50722
-7.50039
-7.49283
-7.48474
-7.47644
-7.46831
-7.46084
-7.45445
-7.44934
-7.44544
-7.44246
-7.44012
-7.43839
-7.43786
-7.43941
-7.44346
-7.44911
-7.45488
-7.45905
-7.45977
-7.45737
-7.45341
-7.44961
-7.44743
-7.44795
-7.45437
-7.46726
-7.48441
-7.50599
-7.53342
-7.5663
-7.60345
-7.64404
-7.6885
-7.73736
-7.79069
-7.84803
-7.90845
-7.9707
-8.03342
-8.09528
-8.15513
-8.21205
-8.26533
-8.31447
-8.35915
-8.39914
-8.43432
-8.46465
-8.4901
-8.51066
-8.52635
-8.53717
-8.54314
-8.54426
-8.54053
-8.53194
-8.51849
-8.50016
-8.47691
-8.44873
-8.41558
-8.37743
-8.33424
-8.28596
-8.23256
-8.17398
-8.11019
-8.04114
-7.96677
-7.88703
-7.80189
-7.71129
-7.6152
-7.51355
-7.40632
-7.29355
-7.17525
-7.05139
-6.92196
-6.78695
-6.64638
-6.50027
-6.34865
-6.19157
-6.02906
-5.8612
-5.68806
-5.50971
-5.32625
-5.13777
-4.94439
-4.74622
-4.54338
-4.33603
-4.12429
-3.90832
-3.68827
-3.46432
-3.23663
-3.00538
-2.77075
-2.53293
-2.29209
-2.04844
-1.80221
-1.5536
-1.3028
-1.05004
-0.795491
-0.539377
-0.281913
-0.0233139
0.23621
0.496445
0.757178
1.0182
1.27931
1.54031
1.80098
2.06115
2.32062
2.57919
2.83669
3.09294
3.34776
3.60098
3.85242
4.10192
4.3493
4.59443
4.83715
5.07733
5.31487
5.54963
5.78152
6.01042
6.23622
6.45881
6.67809
6.89392
7.10621
7.31486
7.51977
7.72085
7.91801
8.11115
8.30017
8.48503
8.66572
8.84217
9.01504
9.18253
9.35325
9.4977
-7.43687
-7.4363
-7.43575
-7.43687
-7.44133
-7.44885
-7.45816
-7.46827
-7.4785
-7.48842
-7.49779
-7.50652
-7.51457
-7.52184
-7.52824
-7.53365
-7.53793
-7.54102
-7.54282
-7.54331
-7.54247
-7.54028
-7.53677
-7.53201
-7.52607
-7.519
-7.5109
-7.50187
-7.49204
-7.48152
-7.47049
-7.4593
-7.44845
-7.4385
-7.43001
-7.42342
-7.41911
-7.41764
-7.41979
-7.42569
-7.43361
-7.44088
-7.4461
-7.44903
-7.44979
-7.44939
-7.44917
-7.45098
-7.45678
-7.46739
-7.48386
-7.50664
-7.53498
-7.5675
-7.60294
-7.64077
-7.68074
-7.72303
-7.76797
-7.81573
-7.86624
-7.91909
-7.97363
-8.02904
-8.08441
-8.13886
-8.19161
-8.24196
-8.28937
-8.33339
-8.37369
-8.41001
-8.44218
-8.47005
-8.49353
-8.51254
-8.52703
-8.53694
-8.54225
-8.54292
-8.5389
-8.53017
-8.5167
-8.49845
-8.47537
-8.44744
-8.41461
-8.37684
-8.33408
-8.28629
-8.23343
-8.17543
-8.11226
-8.04386
-7.97017
-7.89116
-7.80675
-7.71692
-7.62161
-7.52079
-7.41443
-7.30255
-7.18513
-7.06215
-6.93361
-6.79949
-6.65982
-6.51461
-6.3639
-6.20772
-6.04612
-5.87916
-5.70691
-5.52945
-5.34687
-5.15927
-4.96675
-4.76943
-4.56743
-4.3609
-4.14996
-3.93478
-3.71551
-3.4923
-3.26533
-3.03478
-2.80083
-2.56366
-2.32346
-2.08043
-1.8348
-1.58675
-1.33649
-1.08424
-0.830166
-0.574502
-0.317463
-0.0592599
0.199896
0.459792
0.720215
0.980959
1.24182
1.50259
1.76308
2.02308
2.2824
2.54086
2.79828
3.05446
3.30925
3.56247
3.81392
4.06346
4.3109
4.5561
4.79891
5.0392
5.27686
5.51175
5.74378
5.97284
6.1988
6.42155
6.64098
6.85698
7.06945
7.27828
7.48337
7.68464
7.88199
8.07532
8.26456
8.44964
8.63054
8.80712
8.98001
9.14687
9.31714
9.45475
-7.44141
-7.44034
-7.44053
-7.44525
-7.45422
-7.46523
-7.47687
-7.48835
-7.4992
-7.50923
-7.51847
-7.52692
-7.53453
-7.54124
-7.54694
-7.55156
-7.55502
-7.55724
-7.55818
-7.55781
-7.55612
-7.5531
-7.54878
-7.54318
-7.53633
-7.52826
-7.51898
-7.50856
-7.49713
-7.48475
-7.47155
-7.45776
-7.44384
-7.43052
-7.41877
-7.40983
-7.40486
-7.40468
-7.40894
-7.41531
-7.42175
-7.42733
-7.4319
-7.43591
-7.44006
-7.44547
-7.45303
-7.46416
-7.48021
-7.50157
-7.5278
-7.55806
-7.59161
-7.62797
-7.66638
-7.70653
-7.74816
-7.79134
-7.83616
-7.8826
-7.93053
-7.97965
-8.02953
-8.07964
-8.1294
-8.17822
-8.22553
-8.27082
-8.31364
-8.35359
-8.39035
-8.42364
-8.45325
-8.479
-8.50073
-8.51833
-8.53168
-8.5407
-8.54532
-8.54547
-8.54109
-8.53213
-8.51853
-8.50024
-8.47721
-8.4494
-8.41676
-8.37923
-8.33677
-8.28933
-8.23685
-8.17929
-8.11658
-8.04868
-7.97553
-7.89707
-7.81326
-7.72403
-7.62936
-7.52919
-7.42352
-7.31232
-7.19558
-7.07328
-6.94542
-6.81199
-6.67301
-6.52849
-6.37847
-6.22297
-6.06206
-5.89578
-5.72421
-5.54742
-5.36551
-5.17856
-4.98669
-4.79001
-4.58864
-4.38272
-4.17239
-3.9578
-3.7391
-3.51645
-3.29003
-3.06001
-2.82657
-2.58989
-2.35017
-2.10761
-1.86242
-1.6148
-1.36496
-1.11309
-0.859381
-0.604066
-0.347357
-0.089463
0.169404
0.429032
0.689209
0.949728
1.21038
1.47098
1.7313
1.99116
2.25037
2.50873
2.76607
3.0222
3.27695
3.53015
3.78161
4.03115
4.27862
4.52386
4.76674
5.0071
5.24484
5.47983
5.71197
5.94113
6.16722
6.3901
6.60967
6.82581
7.03842
7.2474
7.45265
7.65408
7.85158
8.04507
8.23446
8.41965
8.60061
8.77712
8.94975
9.11566
9.2852
9.41604
-7.44765
-7.44687
-7.44954
-7.4583
-7.46991
-7.48192
-7.49366
-7.50483
-7.51529
-7.52504
-7.53403
-7.5422
-7.54947
-7.55575
-7.56096
-7.56503
-7.56789
-7.56949
-7.5698
-7.56881
-7.56648
-7.56284
-7.55789
-7.55165
-7.54406
-7.53508
-7.52482
-7.5134
-7.50087
-7.4873
-7.4728
-7.45765
-7.44245
-7.42807
-7.41574
-7.40709
-7.40308
-7.40286
-7.40466
-7.40754
-7.41132
-7.41613
-7.4223
-7.42991
-7.43933
-7.45175
-7.46807
-7.48851
-7.51297
-7.54107
-7.57243
-7.60645
-7.64265
-7.6808
-7.72058
-7.76174
-7.80403
-7.84733
-7.89158
-7.93669
-7.98253
-8.02888
-8.07546
-8.12188
-8.16774
-8.21263
-8.25611
-8.29777
-8.33723
-8.37415
-8.4082
-8.43914
-8.46671
-8.49071
-8.51098
-8.52734
-8.53968
-8.54787
-8.55182
-8.55144
-8.54665
-8.53738
-8.52358
-8.50516
-8.48208
-8.45428
-8.42171
-8.3843
-8.34201
-8.29479
-8.24257
-8.18529
-8.12292
-8.05537
-7.9826
-7.90455
-7.82117
-7.73239
-7.63818
-7.5385
-7.43332
-7.32262
-7.20638
-7.08458
-6.95721
-6.82428
-6.6858
-6.54177
-6.39223
-6.23723
-6.0768
-5.91101
-5.73991
-5.5636
-5.38215
-5.19567
-5.00425
-4.80802
-4.60709
-4.40161
-4.1917
-3.97752
-3.75923
-3.53698
-3.31094
-3.0813
-2.84823
-2.61191
-2.37254
-2.13033
-1.88546
-1.63816
-1.38861
-1.13703
-0.883593
-0.628538
-0.372078
-0.11442
0.144225
0.403644
0.663627
0.923968
1.18446
1.4449
1.70509
1.96484
2.22394
2.48221
2.73947
2.99555
3.25026
3.50343
3.75487
4.00441
4.25189
4.49714
4.74003
4.98043
5.2182
5.45325
5.68546
5.91471
6.14088
6.36386
6.58352
6.79976
7.01248
7.22156
7.42692
7.62846
7.82608
8.01966
8.20912
8.39434
8.57525
8.75155
8.92375
9.08861
9.25748
9.38193
-7.45328
-7.45395
-7.46031
-7.47127
-7.483
-7.49444
-7.50551
-7.51612
-7.52622
-7.53569
-7.54445
-7.55238
-7.55938
-7.56536
-7.57023
-7.57394
-7.57642
-7.57763
-7.57754
-7.57614
-7.57342
-7.56939
-7.56405
-7.55728
-7.54899
-7.53936
-7.52856
-7.51665
-7.50364
-7.48968
-7.47503
-7.45996
-7.44514
-7.43171
-7.42115
-7.41419
-7.40975
-7.4065
-7.4046
-7.40493
-7.40809
-7.41377
-7.42204
-7.43371
-7.4492
-7.46831
-7.49085
-7.51661
-7.54544
-7.57694
-7.61084
-7.64683
-7.68458
-7.72383
-7.76431
-7.80582
-7.84817
-7.89123
-7.9349
-7.97905
-8.02352
-8.06812
-8.11259
-8.15666
-8.20003
-8.24234
-8.28327
-8.32246
-8.35959
-8.39435
-8.42646
-8.45564
-8.48166
-8.50431
-8.5234
-8.53875
-8.55022
-8.55768
-8.561
-8.5601
-8.55489
-8.54528
-8.5312
-8.51259
-8.48938
-8.4615
-8.42889
-8.3915
-8.34927
-8.30214
-8.25006
-8.19296
-8.13078
-8.06346
-7.99094
-7.91317
-7.83007
-7.7416
-7.64771
-7.54835
-7.44351
-7.33314
-7.21722
-7.09575
-6.96872
-6.83611
-6.69795
-6.55424
-6.40503
-6.25034
-6.09023
-5.92475
-5.75397
-5.57796
-5.39682
-5.21063
-5.01951
-4.82356
-4.62293
-4.41772
-4.2081
-3.99419
-3.77617
-3.55418
-3.3284
-3.09901
-2.86619
-2.63012
-2.391
-2.14902
-1.9044
-1.65732
-1.40799
-1.1566
-0.90337
-0.648509
-0.392234
-0.134755
0.123718
0.382975
0.642806
0.903004
1.16336
1.42368
1.68376
1.9434
2.20241
2.4606
2.71779
2.97381
3.22848
3.48162
3.73303
3.98254
4.22998
4.47521
4.7181
4.9585
5.19629
5.43137
5.66362
5.89293
6.11916
6.3422
6.56192
6.77822
6.991
7.20016
7.4056
7.60722
7.80491
7.99855
8.18803
8.37322
8.55401
8.73002
8.90174
9.06553
9.23383
9.35243
-7.45653
-7.45937
-7.46845
-7.4795
-7.49037
-7.50108
-7.51159
-7.52182
-7.53164
-7.54091
-7.5495
-7.55728
-7.56414
-7.56997
-7.57469
-7.57823
-7.58054
-7.58157
-7.58131
-7.57974
-7.57686
-7.57267
-7.56705
-7.55987
-7.55128
-7.54154
-7.53075
-7.51894
-7.50616
-7.49262
-7.47868
-7.46488
-7.45205
-7.44104
-7.4322
-7.42482
-7.41805
-7.41235
-7.40878
-7.4082
-7.41145
-7.41894
-7.43049
-7.44598
-7.46504
-7.48744
-7.51295
-7.54131
-7.57229
-7.60555
-7.64084
-7.67791
-7.71649
-7.75634
-7.79723
-7.83898
-7.88142
-7.92442
-7.96783
-8.01149
-8.05522
-8.09885
-8.14216
-8.18489
-8.22679
-8.26757
-8.30693
-8.34459
-8.38024
-8.4136
-8.4444
-8.47237
-8.49729
-8.51894
-8.53713
-8.55168
-8.56243
-8.56925
-8.57201
-8.57061
-8.56496
-8.55499
-8.5406
-8.52174
-8.49832
-8.47028
-8.43755
-8.40009
-8.35782
-8.3107
-8.25865
-8.20162
-8.13954
-8.07234
-7.99996
-7.92234
-7.83941
-7.75111
-7.65741
-7.55824
-7.45358
-7.3434
-7.22767
-7.10639
-6.97954
-6.84711
-6.70913
-6.5656
-6.41656
-6.26205
-6.10212
-5.93681
-5.7662
-5.59037
-5.40939
-5.22337
-5.03242
-4.83665
-4.63617
-4.43113
-4.22167
-4.00793
-3.79006
-3.56824
-3.34262
-3.11339
-2.88072
-2.64481
-2.40586
-2.16405
-1.91958
-1.67266
-1.42348
-1.17224
-0.919153
-0.664438
-0.408306
-0.150966
0.107373
0.366499
0.626204
0.886282
1.14653
1.40674
1.66671
1.92626
2.18517
2.44328
2.70039
2.95635
3.21098
3.46407
3.71544
3.96489
4.21229
4.45749
4.70034
4.94072
5.17851
5.41359
5.64587
5.87521
6.10147
6.32454
6.54429
6.76063
6.97345
7.18265
7.38814
7.58982
7.78755
7.98122
8.17068
8.3558
8.53642
8.7121
8.88331
9.04608
9.21389
9.32727
-7.45608
-7.46092
-7.47057
-7.48076
-7.49095
-7.50119
-7.51137
-7.52139
-7.53108
-7.5403
-7.54888
-7.55669
-7.56359
-7.56948
-7.57428
-7.5779
-7.5803
-7.58142
-7.58124
-7.57974
-7.5769
-7.57267
-7.56693
-7.55977
-7.55139
-7.54195
-7.53152
-7.52017
-7.50812
-7.49571
-7.48334
-7.47161
-7.46089
-7.451
-7.44178
-7.43307
-7.42506
-7.41873
-7.41529
-7.41561
-7.42023
-7.42915
-7.44205
-7.45883
-7.47921
-7.50295
-7.52979
-7.55937
-7.59139
-7.62555
-7.66161
-7.69931
-7.73843
-7.77874
-7.82004
-7.86216
-7.90491
-7.94812
-7.99161
-8.03523
-8.07881
-8.12214
-8.16501
-8.2072
-8.24845
-8.2885
-8.3271
-8.36398
-8.39884
-8.43142
-8.46144
-8.48864
-8.51282
-8.53375
-8.55126
-8.56516
-8.57529
-8.58154
-8.58378
-8.58192
-8.57586
-8.56552
-8.55081
-8.53166
-8.508
-8.47975
-8.44684
-8.40923
-8.36686
-8.31967
-8.26758
-8.21053
-8.14846
-8.08128
-8.00894
-7.93137
-7.8485
-7.76027
-7.66663
-7.56753
-7.46294
-7.35283
-7.23718
-7.11597
-6.98919
-6.85683
-6.71891
-6.57545
-6.42648
-6.27204
-6.11217
-5.94693
-5.77639
-5.60063
-5.41972
-5.23377
-5.04289
-4.84718
-4.64679
-4.44183
-4.23244
-4.01878
-3.801
-3.57927
-3.35374
-3.1246
-2.89202
-2.65622
-2.41737
-2.17566
-1.93131
-1.6845
-1.43543
-1.1843
-0.931326
-0.676727
-0.42071
-0.163485
0.0947388
0.353752
0.613346
0.873314
1.13345
1.39355
1.65342
1.91286
2.17168
2.42969
2.68672
2.94261
3.19719
3.45024
3.70154
3.95093
4.19826
4.44339
4.68618
4.92652
5.16428
5.39935
5.63163
5.861
6.08728
6.31035
6.53011
6.74646
6.95929
7.16852
7.37405
7.57577
7.77353
7.96719
8.15661
8.34162
8.52204
8.69736
8.86805
9.02984
9.19719
9.30605
-7.44929
-7.45522
-7.46429
-7.47395
-7.48394
-7.49407
-7.50422
-7.51428
-7.52409
-7.5335
-7.54232
-7.5504
-7.55761
-7.56383
-7.56896
-7.57292
-7.57564
-7.57707
-7.57717
-7.57592
-7.57329
-7.56922
-7.56372
-7.55689
-7.54891
-7.53993
-7.53007
-7.51955
-7.50873
-7.49788
-7.48704
-7.47629
-7.46575
-7.45544
-7.44552
-7.43643
-7.42879
-7.42332
-7.42082
-7.42186
-7.4269
-7.43609
-7.44933
-7.46655
-7.48748
-7.51184
-7.53927
-7.5694
-7.60194
-7.63661
-7.67318
-7.71139
-7.75103
-7.79189
-7.83375
-7.87641
-7.91968
-7.96338
-8.00733
-8.05136
-8.09527
-8.13886
-8.18191
-8.22417
-8.2654
-8.30535
-8.34378
-8.38041
-8.41497
-8.4472
-8.47682
-8.5036
-8.52731
-8.54776
-8.56476
-8.57814
-8.58775
-8.59349
-8.59527
-8.59297
-8.58651
-8.5758
-8.56076
-8.5413
-8.51736
-8.48886
-8.45573
-8.41792
-8.37539
-8.32806
-8.27587
-8.21874
-8.1566
-8.08937
-8.017
-7.9394
-7.8565
-7.76825
-7.67459
-7.57547
-7.47087
-7.36075
-7.24509
-7.12387
-6.99707
-6.8647
-6.72677
-6.5833
-6.43432
-6.27987
-6.12
-5.95476
-5.78422
-5.60845
-5.42755
-5.2416
-5.05073
-4.85505
-4.65468
-4.44974
-4.24038
-4.02676
-3.80903
-3.58734
-3.36186
-3.13277
-2.90026
-2.66453
-2.42576
-2.18414
-1.93987
-1.69315
-1.44418
-1.19314
-0.940269
-0.685776
-0.429871
-0.172759
0.08535
0.344248
0.603727
0.86358
1.1236
1.38359
1.64335
1.90268
2.16139
2.4193
2.67622
2.93204
3.18657
3.43956
3.69078
3.94008
4.18732
4.43237
4.67509
4.91537
5.15307
5.38811
5.6204
5.84978
6.07606
6.29913
6.51888
6.73522
6.94806
7.1573
7.36286
7.56462
7.76239
7.95604
8.14539
8.33027
8.51046
8.68541
8.85558
9.01646
9.18337
9.28838
-7.43346
-7.43948
-7.44826
-7.45828
-7.46872
-7.47919
-7.48963
-7.5
-7.51019
-7.52003
-7.52935
-7.53796
-7.54572
-7.55249
-7.55817
-7.56266
-7.56589
-7.56782
-7.5684
-7.56758
-7.56536
-7.56171
-7.55668
-7.55041
-7.54309
-7.53491
-7.52602
-7.5165
-7.50646
-7.49606
-7.48534
-7.47438
-7.46334
-7.45255
-7.44245
-7.43351
-7.42622
-7.42123
-7.41921
-7.4207
-7.42611
-7.43564
-7.44929
-7.46692
-7.48825
-7.51295
-7.54069
-7.57115
-7.60405
-7.63914
-7.67618
-7.71494
-7.7552
-7.79673
-7.83932
-7.88275
-7.92681
-7.97131
-8.01604
-8.06082
-8.10543
-8.14965
-8.19326
-8.23602
-8.27768
-8.318
-8.3567
-8.39352
-8.42817
-8.46039
-8.48991
-8.51648
-8.5399
-8.56
-8.5766
-8.58953
-8.59865
-8.60388
-8.60517
-8.60242
-8.59555
-8.58446
-8.56908
-8.54931
-8.52508
-8.49631
-8.4629
-8.42484
-8.38211
-8.33463
-8.2823
-8.22505
-8.16281
-8.0955
-8.02305
-7.94539
-7.86243
-7.77411
-7.68038
-7.58119
-7.47653
-7.36635
-7.25064
-7.12937
-7.00252
-6.8701
-6.73211
-6.58859
-6.43956
-6.28508
-6.12518
-5.95991
-5.78934
-5.61355
-5.43263
-5.24667
-5.0558
-4.86012
-4.65975
-4.45483
-4.24549
-4.0319
-3.81421
-3.59256
-3.36713
-3.13809
-2.90565
-2.66999
-2.4313
-2.18977
-1.9456
-1.69898
-1.45011
-1.19918
-0.946422
-0.692048
-0.436263
-0.179274
0.0787116
0.337485
0.596838
0.856566
1.11646
1.37633
1.63596
1.89517
2.15376
2.41155
2.66836
2.92411
3.17862
3.43155
3.68267
3.93185
4.17897
4.42392
4.66655
4.90675
5.14439
5.37939
5.61168
5.84109
6.06736
6.2904
6.51013
6.72645
6.93929
7.14853
7.35413
7.55592
7.75371
7.94732
8.13661
8.32133
8.50129
8.67587
8.84553
9.00556
9.17202
9.27386
-7.40731
-7.41284
-7.42227
-7.43358
-7.44501
-7.45608
-7.46696
-7.47784
-7.48867
-7.49927
-7.50939
-7.51883
-7.52739
-7.53492
-7.54132
-7.54653
-7.55046
-7.55306
-7.55429
-7.55412
-7.55256
-7.54963
-7.54538
-7.53993
-7.53337
-7.52582
-7.51738
-7.50812
-7.49812
-7.48745
-7.47625
-7.46477
-7.45333
-7.44225
-7.43191
-7.42284
-7.41563
-7.41093
-7.40936
-7.41142
-7.41744
-7.42755
-7.44169
-7.4597
-7.48131
-7.50624
-7.53422
-7.56497
-7.59825
-7.63384
-7.67148
-7.71091
-7.7519
-7.79423
-7.83767
-7.882
-7.927
-7.97246
-8.01819
-8.06397
-8.10957
-8.15472
-8.19921
-8.24278
-8.2852
-8.32618
-8.36547
-8.40276
-8.43779
-8.47022
-8.49977
-8.52618
-8.54929
-8.56899
-8.58514
-8.59752
-8.60602
-8.61065
-8.61141
-8.60822
-8.60099
-8.5896
-8.57395
-8.55393
-8.52946
-8.50043
-8.46669
-8.42831
-8.38538
-8.33778
-8.28534
-8.22797
-8.16563
-8.09825
-8.02575
-7.94804
-7.86503
-7.77663
-7.68281
-7.58355
-7.47882
-7.3686
-7.25285
-7.13153
-7.00463
-6.87216
-6.73412
-6.59056
-6.4415
-6.287
-6.12708
-5.96181
-5.79124
-5.61544
-5.43452
-5.24858
-5.05773
-4.86208
-4.66175
-4.45687
-4.24759
-4.03407
-3.81645
-3.59488
-3.36953
-3.14058
-2.90824
-2.6727
-2.43413
-2.19273
-1.94869
-1.70221
-1.45347
-1.20269
-0.950088
-0.695873
-0.440248
-0.183421
0.0744017
0.333011
0.592201
0.851765
1.1115
1.3712
1.63068
1.88974
2.14818
2.40581
2.66252
2.91826
3.1728
3.42567
3.67665
3.92569
4.17268
4.41752
4.66006
4.90018
5.13776
5.37273
5.60508
5.83453
6.06079
6.28379
6.50348
6.71978
6.93261
7.14186
7.34751
7.54936
7.74714
7.94072
8.12992
8.3145
8.49422
8.66842
8.8376
8.99684
9.1628
9.26215
-7.37119
-7.37678
-7.3877
-7.40088
-7.41349
-7.42518
-7.43664
-7.44837
-7.4603
-7.47203
-7.48324
-7.49369
-7.50321
-7.51165
-7.51892
-7.52497
-7.52974
-7.53319
-7.53527
-7.53595
-7.53522
-7.53309
-7.5296
-7.52479
-7.51872
-7.51146
-7.50306
-7.4936
-7.48319
-7.472
-7.46027
-7.44825
-7.43622
-7.4246
-7.41392
-7.40475
-7.39773
-7.39347
-7.39251
-7.39524
-7.4019
-7.41254
-7.42709
-7.44537
-7.46718
-7.49229
-7.52047
-7.5515
-7.58515
-7.62118
-7.65935
-7.69943
-7.7412
-7.78441
-7.82881
-7.87416
-7.92023
-7.96683
-8.01372
-8.06067
-8.10741
-8.15367
-8.1992
-8.24374
-8.28701
-8.32874
-8.36863
-8.40638
-8.4417
-8.47425
-8.50369
-8.52979
-8.55246
-8.57167
-8.58725
-8.5989
-8.60648
-8.61032
-8.6106
-8.60716
-8.59981
-8.58839
-8.57272
-8.55266
-8.52816
-8.49905
-8.465
-8.42624
-8.38316
-8.33548
-8.28294
-8.22546
-8.16301
-8.09556
-8.02302
-7.94527
-7.86217
-7.77367
-7.67973
-7.58036
-7.47555
-7.36527
-7.24947
-7.12811
-7.00115
-6.8686
-6.73051
-6.58691
-6.43783
-6.28332
-6.12341
-5.95815
-5.78759
-5.61181
-5.43091
-5.24501
-5.05421
-4.85863
-4.65839
-4.45363
-4.24446
-4.03104
-3.81352
-3.59208
-3.36689
-3.13812
-2.90597
-2.67062
-2.43226
-2.19109
-1.94729
-1.70104
-1.45254
-1.20203
-0.949701
-0.695764
-0.440424
-0.183889
0.0736361
0.331944
0.590828
0.850084
1.10951
1.3689
1.62806
1.88681
2.14494
2.40227
2.65872
2.91433
3.16878
3.42146
3.67222
3.92106
4.1679
4.4126
4.65503
4.89507
5.13258
5.36756
5.60007
5.82966
6.0559
6.27885
6.49851
6.7148
6.92763
7.13692
7.34268
7.54464
7.74243
7.93596
8.12507
8.30949
8.48898
8.66284
8.83155
8.99005
9.15546
9.25298
-7.32791
-7.33447
-7.34754
-7.36297
-7.37697
-7.38951
-7.40154
-7.41394
-7.42693
-7.43999
-7.4526
-7.46446
-7.47525
-7.48471
-7.49279
-7.49966
-7.50534
-7.50974
-7.51277
-7.51438
-7.51451
-7.51314
-7.51027
-7.50589
-7.50003
-7.49274
-7.4841
-7.4742
-7.46322
-7.45133
-7.4388
-7.42596
-7.41324
-7.40115
-7.39024
-7.38112
-7.3744
-7.3706
-7.37016
-7.37336
-7.38037
-7.39123
-7.40586
-7.42414
-7.44594
-7.47106
-7.49932
-7.5305
-7.56438
-7.60073
-7.63935
-7.68004
-7.72255
-7.76664
-7.81206
-7.85857
-7.9059
-7.95381
-8.00198
-8.0501
-8.09791
-8.14515
-8.19156
-8.23686
-8.28078
-8.32302
-8.36327
-8.40124
-8.4366
-8.46897
-8.49791
-8.5232
-8.54503
-8.56356
-8.5785
-8.58913
-8.59522
-8.59777
-8.59752
-8.59409
-8.58702
-8.57598
-8.56065
-8.54089
-8.51672
-8.48813
-8.45501
-8.41725
-8.37472
-8.32723
-8.27471
-8.21717
-8.15465
-8.08711
-8.01446
-7.93656
-7.8533
-7.76459
-7.67045
-7.57088
-7.4659
-7.35545
-7.23949
-7.11796
-6.99084
-6.85814
-6.71991
-6.57618
-6.427
-6.2724
-6.11242
-5.9471
-5.77648
-5.60065
-5.41973
-5.23383
-5.04304
-4.84749
-4.64731
-4.44263
-4.23355
-4.02021
-3.80278
-3.58146
-3.35643
-3.12784
-2.89589
-2.66075
-2.42263
-2.1817
-1.93815
-1.69216
-1.44396
-1.19377
-0.941771
-0.688176
-0.433192
-0.177024
0.08012
0.338035
0.596515
0.855356
1.11435
1.37331
1.63201
1.89028
2.14792
2.40471
2.66049
2.91509
3.1684
3.42026
3.67049
3.91894
4.16545
4.40986
4.65203
4.89181
5.12909
5.36394
5.59646
5.82607
6.05223
6.27511
6.49473
6.71102
6.92388
7.13325
7.33924
7.54141
7.73925
7.93274
8.12177
8.30607
8.48535
8.65888
8.82717
8.98499
9.14979
9.24611
-7.28049
-7.28837
-7.30422
-7.32209
-7.33664
-7.34928
-7.36235
-7.37628
-7.39062
-7.40491
-7.41879
-7.432
-7.44421
-7.45492
-7.464
-7.47183
-7.47857
-7.48406
-7.48818
-7.49079
-7.49183
-7.4912
-7.48888
-7.48482
-7.47906
-7.47161
-7.46256
-7.45205
-7.44026
-7.42745
-7.41397
-7.40024
-7.38674
-7.37403
-7.3627
-7.35334
-7.34649
-7.34261
-7.34206
-7.34509
-7.35183
-7.36233
-7.37657
-7.39448
-7.41595
-7.44084
-7.469
-7.50021
-7.53429
-7.571
-7.61014
-7.65149
-7.69481
-7.73983
-7.78627
-7.83386
-7.88232
-7.93135
-7.98058
-8.0297
-8.07841
-8.12646
-8.17354
-8.21937
-8.26368
-8.30618
-8.34658
-8.38458
-8.41982
-8.45176
-8.47954
-8.50276
-8.52239
-8.53956
-8.55411
-8.56521
-8.57233
-8.57567
-8.57566
-8.57233
-8.56543
-8.55459
-8.53944
-8.51981
-8.49585
-8.46772
-8.43554
-8.39883
-8.35689
-8.30967
-8.25728