/*--------------------------------*- C++ -*----------------------------------*\
| =========                 |                                                 |
| \\      /  F ield         | OpenFOAM: The Open Source CFD Toolbox           |
|  \\    /   O peration     | Version:  2112                                  |
|   \\  /    A nd           | Website:  www.openfoam.com                      |
|    \\/     M anipulation  |                                                 |
\*---------------------------------------------------------------------------*/
FoamFile
{
    version     2.0;
    format      ascii;
    arch        "LSB;label=32;scalar=64";
    class       surfaceScalarField;
    location    "383";
    object      phi;
}
// * * * * * * * * * * * * * * * * * * * * * * * * * * * * * * * * * * * * * //

dimensions      [0 3 -1 0 0 0 0];

oriented        oriented;

internalField   nonuniform List<scalar> 
24170
(
3.06167e-06
1.26737e-07
2.91932e-06
1.42346e-07
2.79247e-06
1.26855e-07
2.67834e-06
1.1413e-07
2.57609e-06
1.02245e-07
2.48595e-06
9.01402e-08
2.40748e-06
7.8474e-08
2.33965e-06
6.78271e-08
2.28103e-06
5.8616e-08
2.23006e-06
5.09752e-08
2.18561e-06
4.4442e-08
2.14695e-06
3.8666e-08
2.11352e-06
3.34296e-08
2.08495e-06
2.85665e-08
2.0611e-06
2.38531e-08
2.04232e-06
1.87828e-08
2.02968e-06
1.26385e-08
5.28786e-10
2.02915e-06
3.47001e-06
7.39729e-08
3.50327e-06
1.09089e-07
3.52007e-06
1.10059e-07
3.52429e-06
1.09903e-07
3.51852e-06
1.08023e-07
3.50553e-06
1.03122e-07
3.48757e-06
9.64364e-08
3.46626e-06
8.91397e-08
3.44303e-06
8.18411e-08
3.41917e-06
7.48386e-08
3.39537e-06
6.82352e-08
3.37207e-06
6.19714e-08
3.34954e-06
5.59579e-08
3.32803e-06
5.00736e-08
3.30775e-06
4.41356e-08
3.28893e-06
3.76007e-08
3.27149e-06
3.00829e-08
1.94627e-08
3.25256e-06
3.68197e-06
5.45221e-08
3.6997e-06
9.13561e-08
3.71367e-06
9.60926e-08
3.7258e-06
9.77651e-08
3.73581e-06
9.80148e-08
3.74348e-06
9.54513e-08
3.74895e-06
9.09732e-08
3.75238e-06
8.57107e-08
3.75403e-06
8.01855e-08
3.75424e-06
7.46268e-08
3.75333e-06
6.91455e-08
3.75156e-06
6.37477e-08
3.74913e-06
5.83883e-08
3.74623e-06
5.29733e-08
3.74301e-06
4.73551e-08
3.73949e-06
4.11216e-08
3.73537e-06
3.41962e-08
2.57196e-08
3.72912e-06
3.93661e-06
4.33014e-08
3.94889e-06
7.90789e-08
3.95825e-06
8.67266e-08
3.96659e-06
8.94265e-08
3.97419e-06
9.04197e-08
3.98092e-06
8.87201e-08
3.98681e-06
8.50813e-08
3.99193e-06
8.05896e-08
3.99634e-06
7.57749e-08
4.00012e-06
7.0849e-08
4.00336e-06
6.58966e-08
4.00617e-06
6.09416e-08
4.00861e-06
5.5947e-08
4.01075e-06
5.08396e-08
4.0126e-06
4.54983e-08
4.01405e-06
3.96761e-08
4.01487e-06
3.33803e-08
2.64087e-08
4.01418e-06
4.21543e-06
3.50019e-08
4.22548e-06
6.90269e-08
4.23348e-06
7.87255e-08
4.24055e-06
8.23534e-08
4.24709e-06
8.38836e-08
4.25303e-06
8.2776e-08
4.25838e-06
7.97302e-08
4.26322e-06
7.57554e-08
4.2676e-06
7.13903e-08
4.27161e-06
6.68458e-08
4.27529e-06
6.22142e-08
4.2787e-06
5.75282e-08
4.28188e-06
5.27679e-08
4.28484e-06
4.78772e-08
4.28757e-06
4.27729e-08
4.28992e-06
3.73259e-08
4.29172e-06
3.15836e-08
2.56183e-08
4.29251e-06
4.51565e-06
2.84415e-08
4.52437e-06
6.03001e-08
4.53179e-06
7.13087e-08
4.53845e-06
7.5696e-08
4.54466e-06
7.76757e-08
4.55036e-06
7.70752e-08
4.55554e-06
7.45497e-08
4.56027e-06
7.10265e-08
4.56461e-06
6.7041e-08
4.56865e-06
6.28093e-08
4.57242e-06
5.84407e-08
4.57597e-06
5.39782e-08
4.57932e-06
4.9423e-08
4.58246e-06
4.47384e-08
4.58535e-06
3.98817e-08
4.58787e-06
3.48004e-08
4.58989e-06
2.95706e-08
2.43502e-08
4.59116e-06
4.83795e-06
2.32115e-08
4.84573e-06
5.25146e-08
4.85277e-06
6.42758e-08
4.85922e-06
6.92424e-08
4.86533e-06
7.157e-08
4.87099e-06
7.14108e-08
4.87618e-06
6.93577e-08
4.88096e-06
6.62551e-08
4.88537e-06
6.26243e-08
4.88949e-06
5.86889e-08
4.89336e-06
5.45723e-08
4.89701e-06
5.03305e-08
4.90045e-06
4.59854e-08
4.90366e-06
4.15232e-08
4.90661e-06
3.69352e-08
4.90919e-06
3.22192e-08
4.91129e-06
2.74643e-08
2.28345e-08
4.91281e-06
5.18375e-06
1.90443e-08
5.19075e-06
4.55097e-08
5.19746e-06
5.75689e-08
5.20375e-06
6.29512e-08
5.2098e-06
6.5521e-08
5.21548e-06
6.5726e-08
5.22075e-06
6.40937e-08
5.22562e-06
6.13811e-08
5.23016e-06
5.80878e-08
5.2344e-06
5.44448e-08
5.23839e-06
5.05837e-08
5.24215e-06
4.65749e-08
5.24567e-06
4.24573e-08
5.24896e-06
3.82407e-08
5.25195e-06
3.3942e-08
5.25458e-06
2.95903e-08
5.25677e-06
2.5275e-08
2.11428e-08
5.25846e-06
5.55467e-06
1.57116e-08
5.56096e-06
3.92197e-08
5.56735e-06
5.11738e-08
5.57349e-06
5.6812e-08
5.57948e-06
5.95335e-08
5.58518e-06
6.00231e-08
5.59052e-06
5.87574e-08
5.5955e-06
5.64007e-08
5.60016e-06
5.34261e-08
5.60454e-06
5.00703e-08
5.60865e-06
4.64702e-08
5.61252e-06
4.27083e-08
5.61614e-06
3.88377e-08
5.61949e-06
3.48882e-08
5.62254e-06
3.08944e-08
5.62522e-06
2.69032e-08
5.6275e-06
2.29974e-08
1.92996e-08
5.62934e-06
5.95247e-06
1.30212e-08
5.95809e-06
3.35976e-08
5.96417e-06
4.50925e-08
5.97016e-06
5.08208e-08
5.97608e-06
5.36155e-08
5.98179e-06
5.43145e-08
5.98718e-06
5.3362e-08
5.99225e-06
5.13283e-08
5.99702e-06
4.86538e-08
6.00152e-06
4.55792e-08
6.00574e-06
4.22444e-08
6.00971e-06
3.87414e-08
6.01341e-06
3.51345e-08
6.01683e-06
3.14685e-08
6.01994e-06
2.77894e-08
6.02269e-06
2.41518e-08
6.02506e-06
2.06284e-08
1.73207e-08
6.02704e-06
6.37901e-06
1.08205e-08
6.38402e-06
2.85939e-08
6.38978e-06
3.93319e-08
6.39562e-06
4.4979e-08
6.40146e-06
4.77743e-08
6.40716e-06
4.86121e-08
6.4126e-06
4.79184e-08
6.41776e-06
4.61759e-08
6.42262e-06
4.37859e-08
6.42722e-06
4.0987e-08
6.43154e-06
3.7922e-08
6.43559e-06
3.46886e-08
6.43937e-06
3.13586e-08
6.44285e-06
2.79877e-08
6.44601e-06
2.46275e-08
6.44883e-06
2.13345e-08
6.45129e-06
1.81705e-08
1.5217e-08
6.45339e-06
5.74241e-06
9.23996e-09
5.7462e-06
2.48103e-08
5.75082e-06
3.47117e-08
5.75564e-06
4.01552e-08
5.76051e-06
4.29016e-08
5.76532e-06
4.38074e-08
5.76995e-06
4.32876e-08
5.77436e-06
4.17656e-08
5.77854e-06
3.96045e-08
5.78249e-06
3.70357e-08
5.78621e-06
3.42019e-08
5.7897e-06
3.1203e-08
5.79294e-06
2.8116e-08
5.79593e-06
2.50003e-08
5.79864e-06
2.19109e-08
5.80108e-06
1.89017e-08
5.80322e-06
1.60258e-08
1.33536e-08
5.80508e-06
6.99972e-06
7.67824e-09
7.00364e-06
2.08916e-08
7.00863e-06
2.97206e-08
7.01399e-06
3.47933e-08
7.01949e-06
3.74033e-08
7.02497e-06
3.83278e-08
7.03029e-06
3.79603e-08
7.0354e-06
3.66599e-08
7.04026e-06
3.47457e-08
7.04486e-06
3.24351e-08
7.04919e-06
2.98679e-08
7.05325e-06
2.71447e-08
7.05702e-06
2.43427e-08
7.0605e-06
2.15248e-08
7.06366e-06
1.87444e-08
7.06651e-06
1.60526e-08
7.06905e-06
1.34926e-08
1.11238e-08
7.07128e-06
8.53238e-06
6.14447e-09
8.53637e-06
1.6903e-08
8.54167e-06
2.44145e-08
8.54755e-06
2.89161e-08
8.55368e-06
3.12752e-08
8.55986e-06
3.21472e-08
8.56593e-06
3.189e-08
8.57179e-06
3.07997e-08
8.57739e-06
2.91427e-08
8.58271e-06
2.71159e-08
8.58773e-06
2.48513e-08
8.59243e-06
2.24455e-08
8.5968e-06
1.99735e-08
8.60082e-06
1.74965e-08
8.6045e-06
1.50649e-08
8.60783e-06
1.27237e-08
8.61082e-06
1.05077e-08
8.46502e-09
8.61348e-06
1.04007e-05
4.64165e-09
1.04047e-05
1.28914e-08
1.04103e-05
1.88512e-08
1.04167e-05
2.25554e-08
1.04234e-05
2.45228e-08
1.04303e-05
2.52497e-08
1.04372e-05
2.50417e-08
1.04438e-05
2.41326e-08
1.04502e-05
2.27336e-08
1.04563e-05
2.10097e-08
1.04621e-05
1.90803e-08
1.04675e-05
1.70315e-08
1.04726e-05
1.49328e-08
1.04772e-05
1.28384e-08
1.04815e-05
1.0794e-08
1.04854e-05
8.83613e-09
1.04889e-05
6.99244e-09
5.30092e-09
1.04921e-05
1.26783e-05
3.16234e-09
1.26823e-05
8.86052e-09
1.26881e-05
1.30637e-08
1.26949e-05
1.57358e-08
1.27023e-05
1.7144e-08
1.27099e-05
1.76152e-08
1.27176e-05
1.73785e-08
1.27251e-05
1.6607e-08
1.27324e-05
1.54529e-08
1.27394e-05
1.40436e-08
1.2746e-05
1.24743e-08
1.27522e-05
1.08178e-08
1.2758e-05
9.13011e-09
1.27634e-05
7.45726e-09
1.27683e-05
5.83487e-09
1.27729e-05
4.29264e-09
1.2777e-05
2.84912e-09
1.53552e-09
1.27808e-05
1.54547e-05
1.67925e-09
1.54588e-05
4.74934e-09
1.54648e-05
7.00806e-09
1.54721e-05
8.41975e-09
1.54802e-05
9.08825e-09
1.54886e-05
9.1797e-09
1.54972e-05
8.82852e-09
1.55057e-05
8.14083e-09
1.55139e-05
7.21028e-09
1.55218e-05
6.11796e-09
1.55294e-05
4.92847e-09
1.55365e-05
3.69226e-09
1.55432e-05
2.44926e-09
1.55494e-05
1.23175e-09
1.55552e-05
6.50017e-11
1.55605e-05
-1.03104e-09
1.55654e-05
-2.04457e-09
-2.95241e-09
1.55699e-05
1.88392e-05
1.28102e-10
1.88436e-05
3.78869e-10
1.88501e-05
4.70801e-10
1.88581e-05
3.99579e-10
1.8867e-05
1.53418e-10
1.88765e-05
-2.53961e-10
1.88861e-05
-7.97825e-10
1.88957e-05
-1.44742e-09
1.89051e-05
-2.1714e-09
1.89141e-05
-2.94081e-09
1.89228e-05
-3.72989e-09
1.8931e-05
-4.51623e-09
1.89387e-05
-5.28066e-09
1.8946e-05
-6.00728e-09
1.89527e-05
-6.68337e-09
1.8959e-05
-7.29891e-09
1.89648e-05
-7.84895e-09
-8.31771e-09
1.89702e-05
2.29651e-05
-1.65178e-09
2.29702e-05
-4.69405e-09
2.29778e-05
-7.12452e-09
2.29871e-05
-8.91418e-09
2.29975e-05
-1.02178e-08
2.30084e-05
-1.12052e-08
2.30196e-05
-1.19789e-08
2.30307e-05
-1.25928e-08
2.30417e-05
-1.30876e-08
2.30522e-05
-1.34953e-08
2.30623e-05
-1.38365e-08
2.30719e-05
-1.41212e-08
2.3081e-05
-1.43547e-08
2.30895e-05
-1.45393e-08
2.30975e-05
-1.46764e-08
2.3105e-05
-1.47657e-08
2.3112e-05
-1.48092e-08
-1.47981e-08
2.31184e-05
1.68122e-05
-3.13082e-09
1.68163e-05
-8.81474e-09
1.68223e-05
-1.3141e-08
1.68295e-05
-1.6102e-08
1.68374e-05
-1.80689e-08
1.68455e-05
-1.93935e-08
1.68538e-05
-2.02639e-08
1.6862e-05
-2.07908e-08
1.687e-05
-2.10709e-08
1.68777e-05
-2.11836e-08
1.6885e-05
-2.11794e-08
1.6892e-05
-2.10903e-08
1.68986e-05
-2.09363e-08
1.69048e-05
-2.07327e-08
1.69106e-05
-2.04879e-08
1.6916e-05
-2.02082e-08
1.69211e-05
-1.9898e-08
-1.9553e-08
1.69259e-05
1.46362e-05
-4.71437e-09
1.46405e-05
-1.31271e-08
1.46465e-05
-1.91735e-08
1.46534e-05
-2.30214e-08
1.46608e-05
-2.54269e-08
1.46683e-05
-2.6941e-08
1.46759e-05
-2.78e-08
1.46832e-05
-2.81629e-08
1.46903e-05
-2.81875e-08
1.46972e-05
-2.7993e-08
1.47036e-05
-2.76529e-08
1.47097e-05
-2.72132e-08
1.47155e-05
-2.67069e-08
1.47209e-05
-2.61568e-08
1.4726e-05
-2.55779e-08
1.47308e-05
-2.49788e-08
1.47353e-05
-2.43662e-08
-2.37367e-08
1.47395e-05
1.2742e-05
-6.56204e-09
1.27468e-05
-1.7939e-08
1.27531e-05
-2.54689e-08
1.27599e-05
-2.98553e-08
1.2767e-05
-3.24794e-08
1.27741e-05
-3.40433e-08
1.2781e-05
-3.47781e-08
1.27878e-05
-3.48965e-08
1.27942e-05
-3.46217e-08
1.28003e-05
-3.41047e-08
1.28061e-05
-3.34299e-08
1.28115e-05
-3.26541e-08
1.28167e-05
-3.18191e-08
1.28215e-05
-3.09538e-08
1.2826e-05
-3.00763e-08
1.28302e-05
-2.91965e-08
1.28341e-05
-2.83212e-08
-2.74476e-08
1.28378e-05
1.10932e-05
-8.87888e-09
1.10988e-05
-2.35069e-08
1.11055e-05
-3.21237e-08
1.11123e-05
-3.66569e-08
1.11191e-05
-3.93107e-08
1.11259e-05
-4.07962e-08
1.11324e-05
-4.12948e-08
1.11386e-05
-4.10994e-08
1.11444e-05
-4.04947e-08
1.115e-05
-3.96452e-08
1.11552e-05
-3.86389e-08
1.11601e-05
-3.75391e-08
1.11647e-05
-3.63945e-08
1.11689e-05
-3.52387e-08
1.11729e-05
-3.40906e-08
1.11767e-05
-3.2961e-08
1.11802e-05
-3.18548e-08
-3.0768e-08
1.11836e-05
9.65831e-06
-1.19721e-08
9.66481e-06
-3.00141e-08
9.6718e-06
-3.91157e-08
9.67857e-06
-4.34197e-08
9.68523e-06
-4.59695e-08
9.69168e-06
-4.72543e-08
9.69781e-06
-4.74201e-08
9.70357e-06
-4.68653e-08
9.70899e-06
-4.59158e-08
9.71408e-06
-4.47325e-08
9.71884e-06
-4.3399e-08
9.72329e-06
-4.19858e-08
9.72744e-06
-4.05464e-08
9.73132e-06
-3.91178e-08
9.73495e-06
-3.77197e-08
9.73835e-06
-3.63631e-08
9.74155e-06
-3.50518e-08
-3.37774e-08
9.74455e-06
8.40964e-06
-1.62649e-08
8.41719e-06
-3.7558e-08
8.42444e-06
-4.63638e-08
8.43117e-06
-5.01561e-08
8.43772e-06
-5.25186e-08
8.44398e-06
-5.35078e-08
8.44983e-06
-5.32751e-08
8.4553e-06
-5.23354e-08
8.46041e-06
-5.10301e-08
8.46519e-06
-4.95045e-08
8.46963e-06
-4.78407e-08
8.47376e-06
-4.61136e-08
8.47759e-06
-4.43827e-08
8.48116e-06
-4.26872e-08
8.48449e-06
-4.10477e-08
8.4876e-06
-3.94757e-08
8.49052e-06
-3.79738e-08
-3.65188e-08
8.49326e-06
7.32323e-06
-2.22105e-08
7.33197e-06
-4.62937e-08
7.3396e-06
-5.39941e-08
7.3465e-06
-5.70649e-08
7.35314e-06
-5.91582e-08
7.35941e-06
-5.97695e-08
7.36522e-06
-5.90909e-08
7.37062e-06
-5.77358e-08
7.37564e-06
-5.60461e-08
7.38028e-06
-5.41502e-08
7.38457e-06
-5.21309e-08
7.38853e-06
-5.00673e-08
7.39217e-06
-4.80257e-08
7.39553e-06
-4.60461e-08
7.39863e-06
-4.4153e-08
7.40152e-06
-4.23606e-08
7.40422e-06
-4.06712e-08
-3.9054e-08
7.40675e-06
6.3784e-06
-3.05479e-08
6.38904e-06
-5.693e-08
6.39777e-06
-6.27215e-08
6.40566e-06
-6.49509e-08
6.41309e-06
-6.6596e-08
6.41995e-06
-6.66309e-08
6.42623e-06
-6.53676e-08
6.43198e-06
-6.34834e-08
6.43724e-06
-6.13029e-08
6.44202e-06
-5.89345e-08
6.44635e-06
-5.64649e-08
6.45026e-06
-5.39758e-08
6.45378e-06
-5.15436e-08
6.45694e-06
-4.92008e-08
6.45976e-06
-4.6979e-08
6.46232e-06
-4.49163e-08
6.46464e-06
-4.29972e-08
-4.11735e-08
6.46676e-06
5.5603e-06
-4.53877e-08
5.57552e-06
-7.21403e-08
5.58805e-06
-7.52528e-08
5.59948e-06
-7.63852e-08
5.60978e-06
-7.68916e-08
5.61875e-06
-7.55971e-08
5.62648e-06
-7.30968e-08
5.63308e-06
-7.00903e-08
5.63865e-06
-6.68671e-08
5.64324e-06
-6.35294e-08
5.64694e-06
-6.01601e-08
5.64981e-06
-5.68457e-08
5.65194e-06
-5.36767e-08
5.65342e-06
-5.06769e-08
5.65431e-06
-4.78747e-08
5.65476e-06
-4.53585e-08
5.65486e-06
-4.31002e-08
-4.12778e-08
5.65496e-06
4.86992e-06
-8.76974e-08
4.90261e-06
-1.04831e-07
4.92487e-06
-9.75082e-08
4.93969e-06
-9.12085e-08
4.94817e-06
-8.53739e-08
4.95152e-06
-7.89471e-08
4.95078e-06
-7.23558e-08
4.94676e-06
-6.60703e-08
4.94012e-06
-6.02271e-08
4.93143e-06
-5.48298e-08
4.92113e-06
-4.9866e-08
4.90963e-06
-4.5344e-08
4.89725e-06
-4.12936e-08
4.88436e-06
-3.77929e-08
4.87134e-06
-3.48495e-08
4.85834e-06
-3.23632e-08
4.84551e-06
-3.02657e-08
-2.89924e-08
4.83322e-06
4.11498e-06
4.01015e-06
3.91264e-06
3.82143e-06
3.73606e-06
3.65711e-06
3.58476e-06
3.51868e-06
3.45846e-06
3.40363e-06
3.35376e-06
3.30842e-06
3.26712e-06
3.22933e-06
3.19448e-06
3.16212e-06
3.13185e-06
3.10286e-06
-1.02769e-08
1.02774e-08
-2.76709e-08
1.73953e-08
-4.71194e-08
1.94492e-08
-6.52473e-08
1.81291e-08
-7.68713e-08
1.16245e-08
-7.40605e-08
-2.80919e-09
-5.22633e-08
-2.1797e-08
-1.31213e-08
-3.91404e-08
3.87035e-08
-5.18247e-08
9.80115e-08
-5.93067e-08
1.59221e-07
-6.12092e-08
2.18198e-07
-5.89769e-08
2.72229e-07
-5.40307e-08
3.1962e-07
-4.73903e-08
3.59416e-07
-3.97962e-08
3.91131e-07
-3.1715e-08
4.14513e-07
-2.33812e-08
4.29369e-07
-1.48565e-08
4.35414e-07
-6.04473e-09
4.32224e-07
3.19076e-09
4.19543e-07
1.26806e-08
3.97534e-07
2.201e-08
3.6672e-07
3.08135e-08
3.27984e-07
3.8737e-08
2.82636e-07
4.53488e-08
2.32518e-07
5.01186e-08
1.80056e-07
5.24632e-08
1.28218e-07
5.18396e-08
8.03316e-08
4.78876e-08
3.9659e-08
4.06746e-08
8.59086e-09
3.10705e-08
-1.24163e-08
2.10097e-08
-2.53881e-08
1.29742e-08
-3.31354e-08
7.74995e-09
-3.822e-08
5.08703e-09
-4.21678e-08
3.95074e-09
-4.43537e-08
2.18859e-09
-4.09731e-08
-3.37695e-09
-2.8224e-08
-1.27471e-08
-4.05698e-09
-2.41631e-08
3.04578e-08
-3.45137e-08
7.02994e-08
-3.98388e-08
1.08493e-07
-3.81935e-08
1.39507e-07
-3.10124e-08
1.6038e-07
-2.0873e-08
1.70415e-07
-1.00339e-08
1.70767e-07
-3.51021e-10
1.65165e-07
5.60291e-09
1.58495e-07
6.67104e-09
1.54152e-07
4.34569e-09
1.57391e-07
-3.23775e-09
1.71078e-07
-1.36843e-08
1.78367e-07
-7.28692e-09
1.63221e-07
1.51499e-08
1.15001e-07
4.82208e-08
2.60235e-08
8.89836e-08
-1.0313e-07
1.29155e-07
-2.62107e-07
1.58981e-07
-4.4001e-07
1.77903e-07
-6.27626e-07
1.87618e-07
-8.17006e-07
1.8938e-07
-1.00157e-06
1.84569e-07
-1.17643e-06
1.74856e-07
-1.33851e-06
1.6208e-07
-1.48632e-06
1.47809e-07
-1.61956e-06
1.33239e-07
-1.73881e-06
1.19248e-07
-1.84515e-06
1.06342e-07
-1.93991e-06
9.47653e-08
-2.02451e-06
8.45948e-08
-2.10029e-06
7.57841e-08
-2.16851e-06
6.82193e-08
-2.23026e-06
6.17497e-08
-2.28648e-06
5.6217e-08
-2.33794e-06
5.14657e-08
-2.3853e-06
4.73593e-08
-2.42908e-06
4.37783e-08
-2.46971e-06
4.06245e-08
-2.50752e-06
3.78143e-08
-2.5428e-06
3.52805e-08
-2.57577e-06
3.29687e-08
-2.6066e-06
3.08356e-08
-2.63545e-06
2.88463e-08
-2.66242e-06
2.69728e-08
-2.68762e-06
2.51928e-08
-2.7111e-06
2.34878e-08
-2.73295e-06
2.18427e-08
-2.75319e-06
2.02446e-08
-2.77187e-06
1.86825e-08
-2.78902e-06
1.7146e-08
-2.80464e-06
1.56256e-08
-2.81875e-06
1.41116e-08
-2.83135e-06
1.25941e-08
-2.84241e-06
1.10625e-08
-2.85192e-06
9.50643e-09
-2.85983e-06
7.91529e-09
-2.86611e-06
6.27764e-09
-2.87069e-06
4.57963e-09
-2.8735e-06
2.81337e-09
-2.87452e-06
1.01695e-09
-2.87385e-06
-6.69664e-10
-2.87171e-06
-2.13138e-09
-2.86826e-06
-3.45419e-09
-2.86351e-06
-4.7472e-09
-2.85748e-06
-6.02951e-09
-2.85017e-06
-7.31119e-09
-2.84158e-06
-8.59317e-09
-2.8317e-06
-9.87552e-09
-2.82055e-06
-1.11574e-08
-2.80811e-06
-1.24378e-08
-2.7944e-06
-1.37156e-08
-2.77941e-06
-1.49898e-08
-2.76315e-06
-1.62589e-08
-2.74563e-06
-1.7522e-08
-2.72686e-06
-1.87775e-08
-2.70684e-06
-2.00247e-08
-2.68558e-06
-2.12615e-08
-2.66309e-06
-2.24875e-08
-2.6394e-06
-2.37006e-08
-2.6145e-06
-2.4901e-08
-2.58841e-06
-2.60866e-08
-2.56116e-06
-2.72575e-08
-2.53276e-06
-2.84105e-08
-2.50322e-06
-2.95451e-08
-2.47257e-06
-3.06561e-08
-2.44084e-06
-3.17408e-08
-2.40805e-06
-3.27897e-08
-2.37426e-06
-3.37992e-08
-2.33949e-06
-3.4766e-08
-2.30382e-06
-3.5681e-08
-2.26718e-06
-3.66328e-08
-2.22955e-06
-3.76367e-08
-2.19096e-06
-3.85846e-08
-2.15147e-06
-3.94826e-08
-2.11112e-06
-4.03456e-08
-2.06993e-06
-4.11806e-08
-2.02794e-06
-4.19835e-08
-1.98517e-06
-4.27572e-08
-1.94166e-06
-4.34996e-08
-1.89742e-06
-4.42122e-08
-1.85251e-06
-4.48951e-08
-1.80694e-06
-4.55488e-08
-1.76075e-06
-4.61734e-08
-1.71397e-06
-4.67687e-08
-1.66662e-06
-4.73354e-08
-1.61873e-06
-4.78748e-08
-1.57033e-06
-4.83828e-08
-1.52145e-06
-4.88686e-08
-1.47212e-06
-4.93214e-08
-1.42236e-06
-4.97501e-08
-1.37221e-06
-5.01446e-08
-1.32168e-06
-5.0513e-08
-1.27083e-06
-5.08447e-08
-1.21967e-06
-5.11523e-08
-1.16824e-06
-5.14272e-08
-1.11655e-06
-5.16861e-08
-1.06463e-06
-5.19206e-08
-1.01248e-06
-5.2149e-08
-9.60113e-07
-5.23618e-08
-9.07538e-07
-5.25748e-08
-8.54762e-07
-5.27769e-08
-8.01786e-07
-5.29781e-08
-7.48621e-07
-5.31687e-08
-6.95277e-07
-5.33488e-08
-6.41756e-07
-5.35267e-08
-5.88067e-07
-5.3696e-08
-5.34208e-07
-5.38674e-08
-4.80176e-07
-5.40415e-08
-4.25966e-07
-5.42199e-08
-3.71581e-07
-5.43964e-08
-3.17033e-07
-5.45611e-08
-2.62361e-07
-5.46858e-08
-2.07638e-07
-5.47377e-08
-1.52992e-07
-5.46607e-08
-9.86331e-08
-5.43759e-08
-4.50027e-08
-5.36471e-08
7.22424e-09
-5.22461e-08
5.63737e-08
-4.91646e-08
1.01938e-07
-4.55781e-08
-2.01911e-08
1.22125e-07
-4.04474e-09
1.43228e-08
-1.19115e-08
2.52638e-08
-1.74313e-08
2.49698e-08
-1.335e-08
1.40502e-08
7.92623e-09
-9.65098e-09
4.65691e-08
-4.14506e-08
9.87432e-08
-7.39709e-08
1.58821e-07
-9.92176e-08
2.20835e-07
-1.13838e-07
2.80019e-07
-1.18491e-07
3.34086e-07
-1.15276e-07
3.81853e-07
-1.06743e-07
4.22955e-07
-9.5133e-08
4.57517e-07
-8.19515e-08
4.85849e-07
-6.81286e-08
5.0833e-07
-5.41953e-08
5.25359e-07
-4.04101e-08
5.37368e-07
-2.68652e-08
5.44901e-07
-1.35779e-08
5.48543e-07
-4.50602e-10
5.48496e-07
1.27274e-08
5.44375e-07
2.61315e-08
5.35434e-07
3.9755e-08
5.20778e-07
5.33931e-08
4.99508e-07
6.66194e-08
4.70878e-07
7.87489e-08
4.345e-07
8.88417e-08
3.90552e-07
9.5789e-08
3.39917e-07
9.85237e-08
2.84278e-07
9.63151e-08
2.26234e-07
8.91154e-08
1.69483e-07
7.77624e-08
1.18879e-07
6.35807e-08
7.87332e-08
4.7899e-08
5.18128e-08
3.20109e-08
3.92115e-08
1.65575e-08
4.09016e-08
5.02889e-10
5.45897e-08
-1.70599e-08
7.86181e-08
-3.6773e-08
1.10894e-07
-5.64359e-08
1.45701e-07
-6.9319e-08
1.76191e-07
-7.03275e-08
1.98347e-07
-6.0349e-08
2.10485e-07
-4.31487e-08
2.13193e-07
-2.35803e-08
2.08038e-07
-4.87833e-09
1.96557e-07
1.11307e-08
1.8265e-07
1.95114e-08
1.6817e-07
2.11514e-08
1.38976e-07
3.35427e-08
7.58927e-08
5.98462e-08
-4.0029e-08
1.0224e-07
-2.0536e-07
1.58046e-07
-4.01689e-07
2.1148e-07
-6.11339e-07
2.57872e-07
-8.20953e-07
2.98598e-07
-1.0225e-06
3.30703e-07
-1.2129e-06
3.49382e-07
-1.38863e-06
3.53632e-07
-1.54661e-06
3.45594e-07
-1.68535e-06
3.28123e-07
-1.80509e-06
3.04309e-07
-1.90733e-06
2.77099e-07
-1.99425e-06
2.49003e-07
-2.06832e-06
2.2188e-07
-2.13197e-06
1.96883e-07
-2.18731e-06
1.74588e-07
-2.2361e-06
1.5514e-07
-2.27976e-06
1.38418e-07
-2.31933e-06
1.24167e-07
-2.35561e-06
1.12061e-07
-2.38916e-06
1.0177e-07
-2.42039e-06
9.29819e-08
-2.44959e-06
8.54232e-08
-2.47699e-06
7.88599e-08
-2.50273e-06
7.30998e-08
-2.52693e-06
6.79826e-08
-2.54969e-06
6.33796e-08
-2.57106e-06
5.91875e-08
-2.59111e-06
5.53246e-08
-2.60986e-06
5.17258e-08
-2.62737e-06
4.83392e-08
-2.64364e-06
4.51235e-08
-2.65872e-06
4.20453e-08
-2.6726e-06
3.90779e-08
-2.68531e-06
3.6199e-08
-2.69686e-06
3.33907e-08
-2.70725e-06
3.06373e-08
-2.7165e-06
2.79258e-08
-2.72459e-06
2.52446e-08
-2.73155e-06
2.25836e-08
-2.73737e-06
1.99339e-08
-2.74207e-06
1.72879e-08
-2.74564e-06
1.46398e-08
-2.74812e-06
1.19856e-08
-2.74953e-06
9.32412e-09
-2.74991e-06
6.65677e-09
-2.74932e-06
3.99192e-09
-2.74786e-06
1.35161e-09
-2.74561e-06
-1.22992e-09
-2.74253e-06
-3.7519e-09
-2.7384e-06
-6.26299e-09
-2.73306e-06
-8.78873e-09
-2.72649e-06
-1.13186e-08
-2.71867e-06
-1.38512e-08
-2.70959e-06
-1.63879e-08
-2.69926e-06
-1.89277e-08
-2.68766e-06
-2.14693e-08
-2.67481e-06
-2.40105e-08
-2.6607e-06
-2.65494e-08
-2.64534e-06
-2.90835e-08
-2.62872e-06
-3.16105e-08
-2.61085e-06
-3.41281e-08
-2.59174e-06
-3.66337e-08
-2.57139e-06
-3.91247e-08
-2.54982e-06
-4.15988e-08
-2.52703e-06
-4.40532e-08
-2.50304e-06
-4.64852e-08
-2.47785e-06
-4.88927e-08
-2.45147e-06
-5.12736e-08
-2.42394e-06
-5.36255e-08
-2.39525e-06
-5.5946e-08
-2.36544e-06
-5.82316e-08
-2.33451e-06
-6.04791e-08
-2.30249e-06
-6.26841e-08
-2.26939e-06
-6.48432e-08
-2.23523e-06
-6.69523e-08
-2.20002e-06
-6.90097e-08
-2.16378e-06
-7.10131e-08
-2.1265e-06
-7.29644e-08
-2.08823e-06
-7.48996e-08
-2.04905e-06
-7.68176e-08
-2.00896e-06
-7.86722e-08
-1.96798e-06
-8.04564e-08
-1.92615e-06
-8.21779e-08
-1.88348e-06
-8.38435e-08
-1.84001e-06
-8.54481e-08
-1.79576e-06
-8.69929e-08
-1.75078e-06
-8.84767e-08
-1.70507e-06
-8.98999e-08
-1.65869e-06
-9.12637e-08
-1.61166e-06
-9.2568e-08
-1.56401e-06
-9.38135e-08
-1.51577e-06
-9.49998e-08
-1.46697e-06
-9.6128e-08
-1.41763e-06
-9.71999e-08
-1.36779e-06
-9.82135e-08
-1.31747e-06
-9.9176e-08
-1.26671e-06
-1.00081e-07
-1.21552e-06
-1.00933e-07
-1.16393e-06
-1.01725e-07
-1.11198e-06
-1.02457e-07
-1.05969e-06
-1.03125e-07
-1.00711e-06
-1.03736e-07
-9.54239e-07
-1.0429e-07
-9.01121e-07
-1.04801e-07
-8.47767e-07
-1.05272e-07
-7.94195e-07
-1.0572e-07
-7.4041e-07
-1.06146e-07
-6.86424e-07
-1.06561e-07
-6.32238e-07
-1.06965e-07
-5.7786e-07
-1.07359e-07
-5.23293e-07
-1.07738e-07
-4.68549e-07
-1.08098e-07
-4.13633e-07
-1.08448e-07
-3.58549e-07
-1.08787e-07
-3.03297e-07
-1.09126e-07
-2.47875e-07
-1.09473e-07
-1.92277e-07
-1.09826e-07
-1.36504e-07
-1.10181e-07
-8.05623e-08
-1.10513e-07
-2.4475e-08
-1.10786e-07
3.1716e-08
-1.10941e-07
8.79091e-08
-1.10868e-07
1.43898e-07
-1.10378e-07
1.99384e-07
-1.09148e-07
2.53765e-07
-1.06641e-07
3.06486e-07
-1.019e-07
3.54016e-07
-9.31191e-08
-6.57038e-08
3.99521e-07
1.28018e-09
1.3043e-08
4.5198e-09
2.20255e-08
1.68361e-08
1.26541e-08
4.87361e-08
-1.78487e-08
1.01951e-07
-6.2866e-08
1.68492e-07
-1.0799e-07
2.36171e-07
-1.4165e-07
2.96918e-07
-1.59964e-07
3.47602e-07
-1.64522e-07
3.88234e-07
-1.59123e-07
4.20431e-07
-1.47473e-07
4.46042e-07
-1.32354e-07
4.66519e-07
-1.1561e-07
4.82892e-07
-9.83249e-08
4.95837e-07
-8.10731e-08
5.05778e-07
-6.41364e-08
5.12999e-07
-4.76311e-08
5.17718e-07
-3.15838e-08
5.20123e-07
-1.59825e-08
5.20462e-07
-7.89993e-10
5.19111e-07
1.40788e-08
5.16469e-07
2.87737e-08
5.12797e-07
4.34277e-08
5.08087e-07
5.81031e-08
5.0197e-07
7.27371e-08
4.93645e-07
8.70749e-08
4.81886e-07
1.00601e-07
4.65189e-07
1.12487e-07
4.42102e-07
1.21611e-07
4.11736e-07
1.26683e-07
3.74353e-07
1.26499e-07
3.31861e-07
1.20256e-07
2.87711e-07
1.07732e-07
2.46213e-07
8.93986e-08
2.11844e-07
6.6381e-08
1.884e-07
4.00038e-08
1.77654e-07
1.12515e-08
1.79136e-07
-1.85397e-08
1.90573e-07
-4.82082e-08
2.04573e-07
-7.04344e-08
2.12428e-07
-7.71734e-08
2.10057e-07
-6.79553e-08
1.97639e-07
-4.79301e-08
1.7627e-07
-2.17785e-08
1.47829e-07
4.86087e-09
1.13167e-07
2.9785e-08
6.52382e-08
5.90597e-08
-9.67703e-09
9.44276e-08
-1.25879e-07
1.37353e-07
-2.84553e-07
1.92218e-07
-4.76451e-07
2.51744e-07
-6.84375e-07
3.10165e-07
-8.89544e-07
3.63215e-07
-1.08389e-06
4.05829e-07
-1.26169e-06
4.35668e-07
-1.41626e-06
4.53166e-07
-1.54386e-06
4.58306e-07
-1.64604e-06
4.51569e-07
-1.72695e-06
4.34535e-07
-1.79108e-06
4.09726e-07
-1.84292e-06
3.79965e-07
-1.88646e-06
3.47851e-07
-1.92487e-06
3.15512e-07
-1.96037e-06
2.84499e-07
-1.99429e-06
2.55804e-07
-2.02734e-06
2.29934e-07
-2.05979e-06
2.07035e-07
-2.09166e-06
1.87011e-07
-2.12287e-06
1.69627e-07
-2.15329e-06
1.54582e-07
-2.18278e-06
1.41558e-07
-2.21126e-06
1.30244e-07
-2.23863e-06
1.20356e-07
-2.26486e-06
1.11649e-07
-2.28991e-06
1.03908e-07
-2.31376e-06
9.69573e-08
-2.33643e-06
9.06477e-08
-2.35791e-06
8.4858e-08
-2.37821e-06
7.94894e-08
-2.39735e-06
7.44624e-08
-2.41533e-06
6.97125e-08
-2.43218e-06
6.51878e-08
-2.4479e-06
6.08459e-08
-2.46251e-06
5.66527e-08
-2.47601e-06
5.25798e-08
-2.48842e-06
4.8604e-08
-2.49973e-06
4.47057e-08
-2.50996e-06
4.08686e-08
-2.51912e-06
3.70784e-08
-2.52719e-06
3.33229e-08
-2.5342e-06
2.95918e-08
-2.54014e-06
2.58761e-08
-2.54502e-06
2.21692e-08
-2.54885e-06
1.8466e-08
-2.55163e-06
1.47643e-08
-2.55337e-06
1.10639e-08
-2.55408e-06
7.367e-09
-2.55376e-06
3.67871e-09
-2.55242e-06
7.38223e-12
-2.55e-06
-3.64453e-09
-2.54646e-06
-7.2949e-09
-2.54175e-06
-1.09712e-08
-2.53586e-06
-1.46782e-08
-2.52877e-06
-1.84049e-08
-2.52048e-06
-2.21456e-08
-2.51097e-06
-2.5897e-08
-2.50024e-06
-2.96557e-08
-2.4883e-06
-3.34186e-08
-2.47512e-06
-3.71822e-08
-2.46073e-06
-4.09432e-08
-2.44512e-06
-4.4698e-08
-2.42829e-06
-4.8443e-08
-2.41024e-06
-5.21748e-08
-2.39099e-06
-5.58893e-08
-2.37053e-06
-5.95831e-08
-2.34888e-06
-6.32521e-08
-2.32604e-06
-6.68925e-08
-2.30203e-06
-7.05004e-08
-2.27685e-06
-7.40724e-08
-2.25052e-06
-7.76051e-08
-2.22305e-06
-8.10952e-08
-2.19446e-06
-8.45387e-08
-2.16477e-06
-8.79312e-08
-2.13398e-06
-9.1268e-08
-2.10212e-06
-9.45446e-08
-2.06921e-06
-9.77568e-08
-2.03527e-06
-1.00902e-07
-2.0003e-06
-1.03977e-07
-1.96433e-06
-1.06982e-07
-1.92738e-06
-1.09919e-07
-1.88948e-06
-1.12799e-07
-1.85068e-06
-1.15621e-07
-1.81099e-06
-1.18361e-07
-1.77043e-06
-1.2101e-07
-1.72904e-06
-1.23572e-07
-1.68683e-06
-1.26051e-07
-1.64383e-06
-1.28442e-07
-1.60007e-06
-1.30745e-07
-1.55558e-06
-1.32958e-07
-1.51039e-06
-1.3508e-07
-1.46453e-06
-1.37113e-07
-1.41804e-06
-1.39058e-07
-1.37093e-06
-1.40914e-07
-1.32324e-06
-1.42681e-07
-1.27501e-06
-1.4436e-07
-1.22625e-06
-1.45954e-07
-1.177e-06
-1.47463e-07
-1.12728e-06
-1.48893e-07
-1.07711e-06
-1.50242e-07
-1.02653e-06
-1.5151e-07
-9.75562e-07
-1.52693e-07
-9.24232e-07
-1.53785e-07
-8.7257e-07
-1.54786e-07
-8.20608e-07
-1.55697e-07
-7.68369e-07
-1.56527e-07
-7.15882e-07
-1.57287e-07
-6.63161e-07
-1.57993e-07
-6.10226e-07
-1.58655e-07
-5.57083e-07
-1.59288e-07
-5.03745e-07
-1.599e-07
-4.50211e-07
-1.60499e-07
-3.96491e-07
-1.61079e-07
-3.42589e-07
-1.61642e-07
-2.88512e-07
-1.62174e-07
-2.34269e-07
-1.62692e-07
-1.79862e-07
-1.63194e-07
-1.25292e-07
-1.63696e-07
-7.05556e-08
-1.64209e-07
-1.56449e-08
-1.64738e-07
3.94447e-08
-1.6527e-07
9.47024e-08
-1.65771e-07
1.50103e-07
-1.66186e-07
2.05592e-07
-1.66429e-07
2.6108e-07
-1.66355e-07
3.16428e-07
-1.65725e-07
3.71428e-07
-1.64147e-07
4.25745e-07
-1.60958e-07
4.78949e-07
-1.55103e-07
5.30058e-07
-1.44227e-07
-1.1826e-07
5.82617e-07
-8.02858e-10
1.3846e-08
9.54767e-09
1.16757e-08
4.75208e-08
-2.5319e-08
1.14579e-07
-8.49064e-08
1.93377e-07
-1.41664e-07
2.65584e-07
-1.80197e-07
3.21932e-07
-1.97998e-07
3.61573e-07
-1.99605e-07
3.88e-07
-1.90949e-07
4.05555e-07
-1.76678e-07
4.17741e-07
-1.59658e-07
4.2682e-07
-1.41433e-07
4.34002e-07
-1.22792e-07
4.39822e-07
-1.04145e-07
4.44456e-07
-8.57068e-08
4.47917e-07
-6.75972e-08
4.50171e-07
-4.98855e-08
4.51197e-07
-3.26093e-08
4.51002e-07
-1.57881e-08
4.49642e-07
5.70152e-10
4.47239e-07
1.64828e-08
4.44022e-07
3.19907e-08
4.40306e-07
4.71437e-08
4.36424e-07
6.1985e-08
4.32642e-07
7.65202e-08
4.29038e-07
9.06791e-08
4.25379e-07
1.04261e-07
4.20993e-07
1.16874e-07
4.14758e-07
1.27847e-07
4.05292e-07
1.36149e-07
3.91372e-07
1.4042e-07
3.72462e-07
1.39167e-07
3.49107e-07
1.31088e-07
3.23125e-07
1.15383e-07
2.97335e-07
9.21719e-08
2.74866e-07
6.24741e-08
2.57982e-07
2.81373e-08
2.46867e-07
-7.42248e-09
2.36052e-07
-3.73916e-08
2.17538e-07
-5.19185e-08
1.87397e-07
-4.70323e-08
1.46241e-07
-2.67975e-08
9.52053e-08
3.10588e-09
3.22883e-08
4.11394e-08
-4.95379e-08
8.66873e-08
-1.57844e-07
1.38092e-07
-2.9463e-07
1.95846e-07
-4.58491e-07
2.58288e-07
-6.43089e-07
3.21951e-07
-8.33736e-07
3.82865e-07
-1.01818e-06
4.36186e-07
-1.1864e-06
4.78388e-07
-1.33079e-06
5.07606e-07
-1.44874e-06
5.23778e-07
-1.54128e-06
5.28205e-07
-1.61033e-06
5.22216e-07
-1.65957e-06
5.07554e-07
-1.69395e-06
4.85947e-07
-1.7187e-06
4.59281e-07
-1.73836e-06
4.29387e-07
-1.75635e-06
3.97956e-07
-1.77489e-06
3.66394e-07
-1.79517e-06
3.35789e-07
-1.81758e-06
3.0691e-07
-1.842e-06
2.8023e-07
-1.86805e-06
2.55979e-07
-1.89521e-06
2.34196e-07
-1.92299e-06
2.1479e-07
-1.95094e-06
1.97582e-07
-1.97871e-06
1.82351e-07
-2.00601e-06
1.68856e-07
-2.03262e-06
1.56858e-07
-2.0584e-06
1.46136e-07
-2.08324e-06
1.36489e-07
-2.10708e-06
1.27739e-07
-2.12985e-06
1.19734e-07
-2.15155e-06
1.12345e-07
-2.17215e-06
1.05462e-07
-2.19166e-06
9.89957e-08
-2.21007e-06
9.28723e-08
-2.22739e-06
8.70306e-08
-2.24362e-06
8.14204e-08
-2.25877e-06
7.60002e-08
-2.27286e-06
7.07358e-08
-2.28588e-06
6.55987e-08
-2.29784e-06
6.05651e-08
-2.30875e-06
5.56146e-08
-2.31861e-06
5.07301e-08
-2.32743e-06
4.58964e-08
-2.3352e-06
4.11006e-08
-2.34194e-06
3.63311e-08
-2.34764e-06
3.15783e-08
-2.35231e-06
2.68345e-08
-2.35593e-06
2.20937e-08
-2.35852e-06
1.73521e-08
-2.36007e-06
1.26076e-08
-2.36056e-06
7.8594e-09
-2.35999e-06
3.10787e-09
-2.35833e-06
-1.6469e-09
-2.35556e-06
-6.41046e-09
-2.35166e-06
-1.11965e-08
-2.34661e-06
-1.60189e-08
-2.34041e-06
-2.08778e-08
-2.33305e-06
-2.57653e-08
-2.32452e-06
-3.06749e-08
-2.31482e-06
-3.56012e-08
-2.30394e-06
-4.05392e-08
-2.29187e-06
-4.54841e-08