/*--------------------------------*- C++ -*----------------------------------*\
| =========                 |                                                 |
| \\      /  F ield         | OpenFOAM: The Open Source CFD Toolbox           |
|  \\    /   O peration     | Version:  2112                                  |
|   \\  /    A nd           | Website:  www.openfoam.com                      |
|    \\/     M anipulation  |                                                 |
\*---------------------------------------------------------------------------*/
FoamFile
{
    version     2.0;
    format      ascii;
    arch        "LSB;label=32;scalar=64";
    class       volVectorField;
    location    "383";
    object      U;
}
// * * * * * * * * * * * * * * * * * * * * * * * * * * * * * * * * * * * * * //

dimensions      [0 1 -1 0 0 0 0];

internalField   nonuniform List<vector> 
12225
(
(9.78888 0.043053 0)
(9.37 0.0779568 0)
(8.95973 0.0837773 0)
(8.57627 0.0808274 0)
(8.23239 0.0744534 0)
(7.93091 0.0664163 0)
(7.66758 0.0578849 0)
(7.43883 0.0495096 0)
(7.24149 0.0419152 0)
(7.07054 0.0355089 0)
(6.92113 0.0301421 0)
(6.79133 0.0255597 0)
(6.67832 0.0214711 0)
(6.58136 0.0177346 0)
(6.49899 0.0140895 0)
(6.43137 0.0101085 0)
(6.3814 0.00575239 0)
(6.34417 -0.00518952 0)
(10.0673 0.0553357 0)
(10.2133 0.0887155 0)
(10.2914 0.0882689 0)
(10.3171 0.0853326 0)
(10.3104 0.0830481 0)
(10.2816 0.0799849 0)
(10.2357 0.0761361 0)
(10.1773 0.0719652 0)
(10.1111 0.0677441 0)
(10.0413 0.0636408 0)
(9.97137 0.059793 0)
(9.90205 0.0560429 0)
(9.83496 0.0522695 0)
(9.77017 0.0482978 0)
(9.70908 0.0439564 0)
(9.65118 0.0386354 0)
(9.59874 0.0315518 0)
(9.54414 0.0193774 0)
(10.0209 0.0417595 0)
(10.0756 0.0647618 0)
(10.1241 0.0673832 0)
(10.1586 0.0711437 0)
(10.1873 0.0749853 0)
(10.2116 0.0765974 0)
(10.2299 0.0762625 0)
(10.2421 0.0748472 0)
(10.2487 0.0728517 0)
(10.2511 0.0705563 0)
(10.2499 0.0679741 0)
(10.2461 0.065112 0)
(10.2403 0.0619349 0)
(10.2329 0.0583673 0)
(10.2245 0.0542202 0)
(10.2151 0.0488815 0)
(10.205 0.0419527 0)
(10.1909 0.0309118 0)
(10.0093 0.0313301 0)
(10.0426 0.0546522 0)
(10.0737 0.0615685 0)
(10.0957 0.066343 0)
(10.1148 0.0698313 0)
(10.133 0.071117 0)
(10.1493 0.0707856 0)
(10.1634 0.0696504 0)
(10.1755 0.0680878 0)
(10.1858 0.0662232 0)
(10.1947 0.0640875 0)
(10.2024 0.0616964 0)
(10.2091 0.0589949 0)
(10.2149 0.0558741 0)
(10.2199 0.0521312 0)
(10.2242 0.047322 0)
(10.2272 0.0412385 0)
(10.2278 0.0332083 0)
(10.0052 0.0243592 0)
(10.0301 0.0482816 0)
(10.0543 0.0566734 0)
(10.0721 0.0613385 0)
(10.0873 0.0647056 0)
(10.102 0.0662321 0)
(10.1157 0.066285 0)
(10.1278 0.0655089 0)
(10.1387 0.0642529 0)
(10.1486 0.0626425 0)
(10.1577 0.0607343 0)
(10.1661 0.0585298 0)
(10.174 0.0559757 0)
(10.1813 0.0529665 0)
(10.188 0.0493453 0)
(10.1941 0.04484 0)
(10.1991 0.0393948 0)
(10.2025 0.0329582 0)
(10.0035 0.0196999 0)
(10.0225 0.0422671 0)
(10.0427 0.0513613 0)
(10.0586 0.0563649 0)
(10.0721 0.0599906 0)
(10.0852 0.061833 0)
(10.0974 0.0621778 0)
(10.1084 0.0616268 0)
(10.1184 0.0605452 0)
(10.1277 0.0590695 0)
(10.1363 0.0572613 0)
(10.1444 0.055124 0)
(10.1521 0.0526217 0)
(10.1593 0.0496709 0)
(10.166 0.0461644 0)
(10.172 0.0419497 0)
(10.1772 0.0370439 0)
(10.181 0.03157 0)
(10.0024 0.0161236 0)
(10.0172 0.0368242 0)
(10.0344 0.0462897 0)
(10.0488 0.0516263 0)
(10.0613 0.0554155 0)
(10.0733 0.0574591 0)
(10.0847 0.0580224 0)
(10.095 0.0576609 0)
(10.1045 0.0567314 0)
(10.1133 0.0553712 0)
(10.1215 0.0536474 0)
(10.1293 0.0515734 0)
(10.1366 0.0491317 0)
(10.1435 0.0462633 0)
(10.1499 0.042904 0)
(10.1557 0.0389827 0)
(10.1606 0.0345566 0)
(10.1645 0.0298046 0)
(10.0018 0.0132339 0)
(10.0132 0.0319814 0)
(10.0278 0.0415637 0)
(10.041 0.0470706 0)
(10.0526 0.0508854 0)
(10.0638 0.0530477 0)
(10.0745 0.0537884 0)
(10.0843 0.0535969 0)
(10.0933 0.0528067 0)
(10.1018 0.0515554 0)
(10.1097 0.0499153 0)
(10.1172 0.0479115 0)
(10.1242 0.0455433 0)
(10.1308 0.0427778 0)
(10.1369 0.0395871 0)
(10.1424 0.0359551 0)
(10.1471 0.0319596 0)
(10.1509 0.0277802 0)
(10.0013 0.0109056 0)
(10.0102 0.0276497 0)
(10.0227 0.0370892 0)
(10.0346 0.0426369 0)
(10.0454 0.0464027 0)
(10.0558 0.0486222 0)
(10.0658 0.0494962 0)
(10.0751 0.0494426 0)
(10.0838 0.0487685 0)
(10.0919 0.0476155 0)
(10.0996 0.0460586 0)
(10.1068 0.0441335 0)
(10.1135 0.0418543 0)
(10.1198 0.0392125 0)
(10.1256 0.0362082 0)
(10.1308 0.0328606 0)
(10.1353 0.0292529 0)
(10.1391 0.0255456 0)
(10.0009 0.00903184 0)
(10.0079 0.0237739 0)
(10.0185 0.0328265 0)
(10.0293 0.0383073 0)
(10.0393 0.0419747 0)
(10.049 0.0441974 0)
(10.0583 0.0451601 0)
(10.0672 0.0452099 0)
(10.0755 0.0446295 0)
(10.0832 0.0435631 0)
(10.0905 0.0420878 0)
(10.0974 0.0402489 0)
(10.1039 0.0380725 0)
(10.1099 0.0355708 0)
(10.1154 0.0327637 0)
(10.1203 0.0296912 0)
(10.1246 0.0264327 0)
(10.1284 0.023126 0)
(10.0007 0.00751011 0)
(10.0062 0.0203259 0)
(10.0152 0.0287887 0)
(10.0249 0.0340886 0)
(10.0341 0.0376063 0)
(10.0431 0.0397788 0)
(10.0518 0.0407852 0)
(10.0602 0.0409093 0)
(10.0681 0.0404047 0)
(10.0755 0.0394153 0)
(10.0825 0.0380211 0)
(10.089 0.0362743 0)
(10.0952 0.0342117 0)
(10.1009 0.031861 0)
(10.1061 0.0292553 0)
(10.1108 0.0264443 0)
(10.1149 0.0235003 0)
(10.1186 0.0205388 0)
(10.0006 0.00632084 0)
(10.0051 0.017474 0)
(10.0128 0.0252724 0)
(10.0214 0.0303121 0)
(10.03 0.03365 0)
(10.0384 0.0357344 0)
(10.0467 0.0367424 0)
(10.0546 0.0369092 0)
(10.0621 0.0364597 0)
(10.0692 0.0355342 0)
(10.0758 0.0342148 0)
(10.0821 0.0325578 0)
(10.088 0.030608 0)
(10.0934 0.0284026 0)
(10.0984 0.0259824 0)
(10.1029 0.0233996 0)
(10.1069 0.0207184 0)
(10.1104 0.0180369 0)
(10.0005 0.00531291 0)
(10.0042 0.0149191 0)
(10.0108 0.0219504 0)
(10.0186 0.0266453 0)
(10.0265 0.0297667 0)
(10.0343 0.0317285 0)
(10.0421 0.0327053 0)
(10.0496 0.0328931 0)
(10.0567 0.0324874 0)
(10.0635 0.0316214 0)
(10.0699 0.0303772 0)
(10.0759 0.0288145 0)
(10.0815 0.0269826 0)
(10.0867 0.0249247 0)
(10.0914 0.0226858 0)
(10.0957 0.0203176 0)
(10.0996 0.0178758 0)
(10.103 0.0154464 0)
(10.0004 0.0043428 0)
(10.0034 0.0123209 0)
(10.009 0.0184045 0)
(10.0159 0.0226066 0)
(10.0231 0.025418 0)
(10.0303 0.0271879 0)
(10.0375 0.0280832 0)
(10.0445 0.0282629 0)
(10.0513 0.0278884 0)
(10.0577 0.0270806 0)
(10.0638 0.02592 0)
(10.0695 0.0244673 0)
(10.0748 0.0227734 0)
(10.0797 0.0208852 0)
(10.0842 0.0188479 0)
(10.0884 0.0167109 0)
(10.092 0.0145209 0)
(10.0954 0.0123508 0)
(10.0003 0.00339565 0)
(10.0028 0.00969797 0)
(10.0074 0.0146707 0)
(10.0134 0.0182157 0)
(10.0199 0.0206033 0)
(10.0265 0.0220969 0)
(10.0331 0.0228452 0)
(10.0397 0.0229733 0)
(10.046 0.0226071 0)
(10.052 0.0218501 0)
(10.0577 0.0207775 0)
(10.0631 0.0194474 0)
(10.0681 0.01791 0)
(10.0728 0.0162107 0)
(10.0771 0.0143932 0)
(10.081 0.0125006 0)
(10.0846 0.0105718 0)
(10.0878 0.00866686 0)
(10.0002 0.0024626 0)
(10.0023 0.00706368 0)
(10.0061 0.010783 0)
(10.0113 0.0134985 0)
(10.017 0.0153287 0)
(10.023 0.0164459 0)
(10.0291 0.0169665 0)
(10.0351 0.0169836 0)
(10.041 0.0165896 0)
(10.0466 0.015866 0)
(10.052 0.0148774 0)
(10.057 0.0136754 0)
(10.0618 0.0123052 0)
(10.0662 0.0108077 0)
(10.0703 0.00922096 0)
(10.074 0.00758116 0)
(10.0775 0.00591836 0)
(10.0806 0.00428197 0)
(10.0002 0.0015317 0)
(10.0019 0.00440173 0)
(10.0052 0.00674237 0)
(10.0096 0.00845997 0)
(10.0147 0.00958737 0)
(10.0201 0.0102149 0)
(10.0256 0.0104159 0)
(10.0312 0.0102517 0)
(10.0366 0.00978225 0)
(10.0419 0.00906434 0)
(10.0469 0.00814596 0)
(10.0516 0.00706811 0)
(10.0561 0.00586638 0)
(10.0603 0.00457397 0)
(10.0642 0.00322051 0)
(10.0678 0.00183432 0)
(10.0711 0.000436673 0)
(10.0741 -0.000932488 0)
(10.0002 0.000573531 0)
(10.0016 0.00163987 0)
(10.0045 0.00247152 0)
(10.0085 0.00302684 0)
(10.0131 0.00329832 0)
(10.018 0.0033105 0)
(10.0231 0.00309 0)
(10.0282 0.00266375 0)
(10.0333 0.00206046 0)
(10.0382 0.00130925 0)
(10.0429 0.000437217 0)
(10.0474 -0.000530769 0)
(10.0516 -0.00157166 0)
(10.0556 -0.00266375 0)
(10.0593 -0.0037871 0)
(10.0628 -0.00492294 0)
(10.066 -0.00605752 0)
(10.069 -0.00716073 0)
(10.0002 -0.000481684 0)
(10.0016 -0.00140195 0)
(10.0043 -0.00225272 0)
(10.008 -0.0030181 0)
(10.0124 -0.00373734 0)
(10.0171 -0.00445025 0)
(10.022 -0.00518045 0)
(10.0269 -0.0059376 0)
(10.0317 -0.00672626 0)
(10.0364 -0.00754785 0)
(10.0409 -0.00840035 0)
(10.0452 -0.00927825 0)
(10.0493 -0.0101743 0)
(10.0531 -0.01108 0)
(10.0567 -0.0119867 0)
(10.0601 -0.0128854 0)
(10.0632 -0.01377 0)
(10.0662 -0.01462 0)
(10.0002 -0.00151539 0)
(10.0017 -0.00436881 0)
(10.0047 -0.00681763 0)
(10.0088 -0.00879672 0)
(10.0134 -0.0104041 0)
(10.0182 -0.0117585 0)
(10.0231 -0.0129328 0)
(10.028 -0.0139706 0)
(10.0329 -0.0149096 0)
(10.0376 -0.0157822 0)
(10.042 -0.01661 0)
(10.0463 -0.0174058 0)
(10.0503 -0.0181762 0)
(10.0541 -0.0189251 0)
(10.0577 -0.0196531 0)
(10.0611 -0.0203592 0)
(10.0642 -0.0210426 0)
(10.0671 -0.0216907 0)
(10.0002 -0.00248537 0)
(10.0021 -0.00710327 0)
(10.0057 -0.010895 0)
(10.0103 -0.0137958 0)
(10.0153 -0.0160355 0)
(10.0204 -0.0178324 0)
(10.0256 -0.0192963 0)
(10.0307 -0.0204968 0)
(10.0357 -0.0215039 0)
(10.0404 -0.0223775 0)
(10.045 -0.0231573 0)
(10.0493 -0.0238687 0)
(10.0534 -0.0245288 0)
(10.0572 -0.0251498 0)
(10.0608 -0.0257388 0)
(10.0641 -0.0262995 0)
(10.0673 -0.026834 0)
(10.0703 -0.0273339 0)
(10.0003 -0.00356779 0)
(10.0028 -0.0100485 0)
(10.0072 -0.0150623 0)
(10.0126 -0.018677 0)
(10.0182 -0.0213763 0)
(10.0238 -0.0234861 0)
(10.0293 -0.0251317 0)
(10.0347 -0.0264073 0)
(10.0399 -0.0274199 0)
(10.0449 -0.0282535 0)
(10.0495 -0.0289602 0)
(10.0539 -0.0295744 0)
(10.0581 -0.030122 0)
(10.062 -0.0306217 0)
(10.0656 -0.031086 0)
(10.069 -0.031521 0)
(10.0722 -0.0319314 0)
(10.0752 -0.0323108 0)
(10.0004 -0.00487379 0)
(10.0038 -0.0133885 0)
(10.0096 -0.0194435 0)
(10.0161 -0.0235343 0)
(10.0223 -0.0265414 0)
(10.0284 -0.0288529 0)
(10.0344 -0.0305755 0)
(10.0402 -0.0318413 0)
(10.0456 -0.0328019 0)
(10.0508 -0.0335591 0)
(10.0556 -0.0341701 0)
(10.0602 -0.034675 0)
(10.0644 -0.0351068 0)
(10.0684 -0.0354897 0)
(10.0722 -0.0358391 0)
(10.0757 -0.0361635 0)
(10.079 -0.0364679 0)
(10.082 -0.036747 0)
(10.0007 -0.00655098 0)
(10.0056 -0.0172738 0)
(10.013 -0.0240698 0)
(10.0207 -0.0283554 0)
(10.0277 -0.0315415 0)
(10.0344 -0.0339657 0)
(10.0409 -0.0356806 0)
(10.0471 -0.036873 0)
(10.0529 -0.0377409 0)
(10.0584 -0.0383952 0)
(10.0635 -0.038892 0)
(10.0682 -0.0392772 0)
(10.0727 -0.0395899 0)
(10.0768 -0.0398592 0)
(10.0807 -0.0401027 0)
(10.0844 -0.0403308 0)
(10.0878 -0.0405481 0)
(10.091 -0.0407484 0)
(10.0011 -0.00876774 0)
(10.0084 -0.0217844 0)
(10.018 -0.0289854 0)
(10.027 -0.0331904 0)
(10.0348 -0.0364089 0)
(10.0422 -0.0388435 0)
(10.0494 -0.0404921 0)
(10.0562 -0.0415917 0)
(10.0625 -0.0423599 0)
(10.0684 -0.0429028 0)
(10.0739 -0.043275 0)
(10.079 -0.0435285 0)
(10.0837 -0.0437093 0)
(10.0881 -0.0438525 0)
(10.0922 -0.0439796 0)
(10.096 -0.0441037 0)
(10.0996 -0.044229 0)
(10.103 -0.0443408 0)
(10.0017 -0.0117628 0)
(10.0126 -0.0268667 0)
(10.0252 -0.0342264 0)
(10.0358 -0.0382898 0)
(10.0447 -0.0414273 0)
(10.0532 -0.0436851 0)
(10.0615 -0.0451197 0)
(10.0693 -0.0460483 0)
(10.0764 -0.0466808 0)
(10.083 -0.0470991 0)
(10.0891 -0.0473499 0)
(10.0947 -0.0474869 0)
(10.0999 -0.0475591 0)
(10.1047 -0.0476017 0)
(10.1091 -0.04764 0)
(10.1132 -0.0476945 0)
(10.117 -0.0477699 0)
(10.1205 -0.0478307 0)
(10.003 -0.0167273 0)
(10.0198 -0.0326927 0)
(10.0371 -0.0391946 0)
(10.0506 -0.0433377 0)
(10.0619 -0.0467687 0)
(10.0729 -0.0489541 0)
(10.0833 -0.0501112 0)
(10.0928 -0.0507341 0)
(10.1014 -0.0510666 0)
(10.1093 -0.0511864 0)
(10.1165 -0.0511455 0)
(10.1229 -0.0510059 0)
(10.1288 -0.0508273 0)
(10.134 -0.0506436 0)
(10.1387 -0.0504746 0)
(10.1429 -0.0503523 0)
(10.1467 -0.0502943 0)
(10.1501 -0.0502416 0)
(10.0087 -0.0254453 0)
(10.0385 -0.0413185 0)
(10.067 -0.0440978 0)
(10.0884 -0.0470448 0)
(10.107 -0.0507489 0)
(10.1242 -0.0534373 0)
(10.1395 -0.0550133 0)
(10.1525 -0.0559433 0)
(10.1634 -0.0564678 0)
(10.1725 -0.0566551 0)
(10.18 -0.056578 0)
(10.1859 -0.0563133 0)
(10.1904 -0.0559559 0)
(10.1936 -0.0555754 0)
(10.1957 -0.0552186 0)
(10.1969 -0.0549119 0)
(10.1974 -0.0546733 0)
(10.1972 -0.0546204 0)
(10.0343 -0.0366736 0)
(10.1236 -0.0623247 0)
(10.1856 -0.0642377 0)
(10.2216 -0.0631051 0)
(10.2434 -0.0626241 0)
(10.2551 -0.0618201 0)
(10.2579 -0.060599 0)
(10.2527 -0.059256 0)
(10.2413 -0.057921 0)
(10.2251 -0.0565669 0)
(10.2053 -0.0551897 0)
(10.1826 -0.0538162 0)
(10.1577 -0.052507 0)
(10.1313 -0.0512716 0)
(10.1044 -0.0501561 0)
(10.0774 -0.0493037 0)
(10.0505 -0.0486713 0)
(10.0243 -0.0486632 0)
(9.89121 -0.0284568 0)
(9.6613 -0.0560506 0)
(9.43029 -0.0639631 0)
(9.20256 -0.0656948 0)
(8.98903 -0.065045 0)
(8.7932 -0.0628005 0)
(8.61369 -0.0595443 0)
(8.44926 -0.0557985 0)
(8.29897 -0.0518794 0)
(8.16218 -0.0480144 0)
(8.03773 -0.0442562 0)
(7.92467 -0.0406651 0)
(7.82174 -0.0373087 0)
(7.72803 -0.0343099 0)
(7.64178 -0.0317847 0)
(7.56197 -0.0297119 0)
(7.48752 -0.028002 0)
(7.41836 -0.0269945 0)
(-0.00345874 0.00950738 -9.79071e-19)
(-0.0159192 0.0155643 1.02975e-18)
(-0.032858 0.0169678 0)
(-0.0514572 0.014553 0)
(-0.067623 0.00747731 0)
(-0.0726096 -0.00382419 -6.50584e-19)
(-0.0581733 -0.01865 0)
(-0.0288366 -0.0356186 0)
(0.0120606 -0.0498864 0)
(0.0604946 -0.058007 0)
(0.113601 -0.0603109 3.90592e-19)
(0.167634 -0.0584352 0)
(0.218781 -0.0536317 0)
(0.264648 -0.0469293 0)
(0.304 -0.0391001 0)
(0.336257 -0.0306691 1.89352e-19)
(0.361152 -0.0219384 0)
(0.378512 -0.0130193 0)
(0.388314 -0.00381051 0)
(0.390201 0.00590863 0)
(0.383164 0.0160186 0)
(0.367642 0.0259621 0)
(0.344082 0.0349622 0)
(0.312957 0.0422347 2.03582e-19)
(0.275139 0.0470044 -2.24654e-19)
(0.231991 0.0485123 2.55506e-19)
(0.185409 0.0461152 3.01144e-19)
(0.137805 0.0394766 0)
(0.0920176 0.0288162 0)
(0.0511989 0.0153661 -6.55547e-19)
(0.0185686 0.00213141 -9.51842e-19)
(-0.00374787 -0.00630864 0)
(-0.0179672 -0.00774288 0)
(-0.0268765 -0.004548 -1.03436e-18)
(-0.0324387 -0.000251958 0)
(-0.0368869 0.0022459 0)
(-0.0408314 0.00157824 9.17301e-19)
(-0.0410436 -0.00253168 0)
(-0.0330801 -0.00957821 9.52584e-19)
(-0.0150307 -0.0185097 2.1988e-18)
(0.0121902 -0.0271056 0)
(0.045702 -0.0322606 0)
(0.0809967 -0.0320895 0)
(0.112991 -0.0271527 0)
(0.137382 -0.0193195 0)
(0.151985 -0.0106524 7.55772e-19)
(0.15703 -0.00278549 7.58267e-19)
(0.153793 0.00226959 7.63703e-19)
(0.147187 0.00368891 0)
(0.141347 0.00325238 -8.15108e-19)
(0.14036 -0.000552846 0)
(0.149598 -0.0139856 7.67798e-19)
(0.158798 -0.0319606 7.44096e-19)
(0.158158 -0.0488822 0)
(0.133027 -0.0498605 0)
(0.0798607 -0.026366 0)
(-0.0185167 0.0185715 8.61683e-19)
(-0.161542 0.0635591 0)
(-0.319061 0.0962671 0)
(-0.489076 0.118026 0)
(-0.663785 0.129948 0)
(-0.836728 0.133172 0)
(-1.00283 0.129459 0)
(-1.15849 0.121418 0)
(-1.30162 0.111146 0)
(-1.43145 0.100046 -1.02668e-19)
(-1.54819 0.0891207 0)
(-1.65276 0.07893 0)
(-1.74621 0.0697623 8.87673e-20)
(-1.82983 0.061729 8.57987e-20)
(-1.90487 0.0548054 0)
(-1.97253 0.048902 -8.11922e-20)
(-2.03386 0.0438918 7.93481e-20)
(-2.0898 0.0396441 0)
(-2.14112 0.0360289 -7.62461e-20)
(-2.18846 0.0329339 0)
(-2.23236 0.0302606 0)
(-2.27323 0.0279299 7.25126e-20)
(-2.31143 0.0258748 0)
(-2.34725 0.0240419 -7.03869e-20)
(-2.38089 0.0223886 0)
(-2.41254 0.0208808 6.84368e-20)
(-2.44235 0.0194913 6.75083e-20)
(-2.47043 0.0181985 6.66034e-20)
(-2.49688 0.0169848 1.31435e-19)
(-2.52176 0.0158356 -1.29694e-19)
(-2.54514 0.0147389 0)
(-2.56707 0.0136839 0)
(-2.58757 0.0126611 0)
(-2.60668 0.0116613 -1.22916e-19)
(-2.62441 0.0106756 -1.21245e-19)
(-2.64077 0.00969481 1.19577e-19)
(-2.65575 0.00870973 0)
(-2.66935 0.0077108 -1.16238e-19)
(-2.68154 0.00668876 -1.14565e-19)
(-2.69229 0.00563544 -1.12886e-19)
(-2.70156 0.00454643 0)
(-2.70929 0.00342884 0)
(-2.71544 0.00231618 0)
(-2.71994 0.00127996 -1.06116e-19)
(-2.72272 0.000402265 0)
(-2.72401 -0.000315131 0)
(-2.7241 -0.000960145 1.00798e-19)
(-2.72296 -0.00158726 0)
(-2.72062 -0.00220319 0)
(-2.71708 -0.00281286 9.51542e-20)
(-2.71233 -0.00341658 0)
(-2.70637 -0.00401447 0)
(-2.69919 -0.00460637 -8.91364e-20)
(-2.6908 -0.00519185 -8.70389e-20)
(-2.68118 -0.00577064 0)
(-2.67035 -0.00634231 8.2695e-20)
(-2.65829 -0.00690649 0)
(-2.64501 -0.00746283 -7.814e-20)
(-2.63052 -0.00801084 0)
(-2.61481 -0.00855032 -7.33579e-20)
(-2.5979 -0.0090807 -7.08766e-20)
(-2.57978 -0.00960191 0)
(-2.56046 -0.0101134 0)
(-2.53995 -0.0106152 0)
(-2.51827 -0.0111068 0)
(-2.49541 -0.0115878 0)
(-2.4714 -0.0120568 0)
(-2.44624 -0.012512 0)
(-2.41995 -0.0129476 -4.85614e-20)
(-2.39255 -0.0133538 4.54266e-20)
(-2.36406 -0.0137049 0)
(-2.33451 -0.0139602 0)
(-2.30396 -0.0140751 0)
(-2.27244 -0.0140357 0)
(-2.23994 -0.0141195 5.68137e-20)
(-2.2064 -0.0144438 0)
(-2.17184 -0.0147845 -4.18475e-20)
(-2.1363 -0.0151023 3.40215e-20)
(-2.09982 -0.0154071 0)
(-2.06243 -0.0156986 0)
(-2.02414 -0.0159785 0)
(-1.98499 -0.016247 -1.5067e-22)
(-1.945 -0.0165068 9.0218e-21)
(-1.90419 -0.016758 0)
(-1.86259 -0.0169998 2.83172e-20)
(-1.82024 -0.0172336 3.84753e-20)
(-1.77714 -0.0174593 -4.89996e-20)
(-1.73334 -0.0176776 0)
(-1.68884 -0.0178893 0)
(-1.64368 -0.0180955 -8.29967e-20)
(-1.59789 -0.0182938 0)
(-1.55147 -0.0184909 0)
(-1.50447 -0.0186782 0)
(-1.45688 -0.0188654 0)
(-1.40877 -0.0190427 1.49455e-19)
(-1.36012 -0.0192205 1.64515e-19)
(-1.31101 -0.0193886 0)
(-1.26141 -0.0195599 1.96823e-19)
(-1.2114 -0.0197243 0)
(-1.16094 -0.0198971 0)
(-1.11012 -0.0200673 2.51593e-19)
(-1.05888 -0.0202517 0)
(-1.00729 -0.0204384 2.93141e-19)
(-0.955286 -0.020643 0)
(-0.902946 -0.0208532 0)
(-0.850193 -0.0210818 3.65034e-19)
(-0.797105 -0.0213175 0)
(-0.743626 -0.0215696 4.21098e-19)
(-0.689801 -0.0218388 0)
(-0.635612 -0.0221257 0)
(-0.581063 -0.0224368 0)
(-0.526146 -0.0227743 -5.60207e-19)
(-0.470852 -0.0231407 0)
(-0.415173 -0.0235363 6.48471e-19)
(-0.359109 -0.023959 0)
(-0.302684 -0.0244043 0)
(-0.245947 -0.0248786 0)
(-0.188989 -0.0253636 0)
(-0.131991 -0.0257943 0)
(-0.0753089 -0.0260349 0)
(-0.0192112 -0.0257596 0)
(0.0329026 -0.0240956 -2.29169e-18)
(0.0916404 -0.0215065 0)
(0.105054 -0.00964106 0)
(-7.03711e-05 0.0252182 2.95993e-18)
(-0.00661346 0.0439385 -3.22028e-18)
(-0.0152954 0.0468856 0)
(-0.0194407 0.039142 2.08131e-18)
(-0.00900369 0.0185045 0)
(0.0224324 -0.0202379 8.09463e-19)
(0.064747 -0.0707021 -9.29382e-19)
(0.115266 -0.116283 -6.27654e-19)
(0.169629 -0.147853 0)
(0.223679 -0.163336 -3.85926e-19)
(0.274366 -0.164776 -1.65343e-19)
(0.319879 -0.156164 0)
(0.359596 -0.141341 0)
(0.393501 -0.123006 0)
(0.421726 -0.103016 0)
(0.444565 -0.0825121 -1.18686e-19)
(0.462374 -0.0620811 0)
(0.475529 -0.0419468 2.34285e-19)
(0.484302 -0.0221138 0)
(0.489376 -0.00237224 0)
(0.491403 0.0174318 -2.40776e-19)
(0.490025 0.0371166 0)
(0.484667 0.0563932 2.48642e-19)
(0.474595 0.0747828 -1.2741e-19)
(0.458956 0.0915574 1.31905e-19)
(0.436943 0.105683 -1.38018e-19)
(0.407957 0.115842 -1.46523e-19)
(0.371854 0.120586 0)
(0.329113 0.118672 0)
(0.280947 0.109519 2.01318e-19)
(0.229412 0.0937556 -2.39245e-19)
(0.177385 0.0734564 0)
(0.12819 0.0513918 0)
(0.0860381 0.0304652 5.06598e-19)
(0.0549572 0.0134032 0)
(0.0370031 0.000886547 0)
(0.0318494 -0.0104887 -1.00865e-18)
(0.0408314 -0.0242711 0)
(0.0590432 -0.0423529 6.27778e-19)
(0.0855114 -0.0636284 -9.13048e-19)
(0.116986 -0.0811355 0)
(0.147366 -0.0871131 0)
(0.171266 -0.0800481 -9.70108e-19)
(0.186749 -0.0633469 -9.14502e-19)
(0.193467 -0.0422141 -9.20887e-19)
(0.192327 -0.0208524 4.8779e-19)
(0.184598 -0.00303418 -5.20842e-19)
(0.173378 0.00638941 -1.67701e-18)
(0.160337 0.00465039 1.21659e-18)
(0.142304 -0.00537659 6.55553e-19)
(0.107603 -0.0145988 0)
(0.0363783 -0.00311916 -8.15269e-19)
(-0.10135 0.0518275 5.69309e-19)
(-0.27764 0.122964 0)
(-0.464156 0.18909 0)
(-0.653861 0.248035 0)
(-0.84201 0.29597 -1.30841e-19)
(-1.02398 0.327482 0)
(-1.19355 0.341145 1.91733e-19)
(-1.34817 0.339824 0)
(-1.48529 0.326991 1.58174e-19)
(-1.60464 0.306151 0)
(-1.70708 0.280628 -1.40394e-19)
(-1.79442 0.253187 0)
(-1.86892 0.225941 1.29976e-19)
(-1.93292 0.200295 -6.35619e-20)
(-1.98851 0.177055 0)
(-2.03749 0.156535 -1.20353e-19)
(-2.08128 0.138739 -5.87573e-20)
(-2.12099 0.123491 -5.77303e-20)
(-2.15743 0.110516 0)
(-2.19121 0.0995043 -5.60584e-20)
(-2.22277 0.0901471 -5.50759e-20)
(-2.25239 0.0821617 0)
(-2.28033 0.075298 5.35258e-20)
(-2.30672 0.0693455 -1.05576e-19)
(-2.3317 0.0641293 0)
(-2.35536 0.0595072 -5.13904e-20)
(-2.37775 0.0553642 0)
(-2.39895 0.0516088 1.50106e-19)
(-2.41898 0.0481683 0)
(-2.43787 0.044985 -1.46214e-19)
(-2.45566 0.0420129 -4.81194e-20)
(-2.47237 0.0392157 4.74333e-20)
(-2.488 0.036564 9.36137e-20)
(-2.50258 0.0340341 -9.23666e-20)
(-2.5161 0.0316066 0)
(-2.52858 0.0292654 0)
(-2.54003 0.0269967 0)
(-2.55043 0.0247885 2.62268e-19)
(-2.5598 0.0226301 8.61751e-20)
(-2.56814 0.0205119 -8.49026e-20)
(-2.57544 0.0184248 0)
(-2.58172 0.016361 -8.23342e-20)
(-2.58698 0.0143128 8.10323e-20)
(-2.59125 0.0122725 7.97225e-20)
(-2.59456 0.0102309 0)
(-2.59694 0.00818038 0)
(-2.59846 0.00612812 0)
(-2.59922 0.00411859 7.43716e-20)
(-2.5993 0.00222663 0)
(-2.59855 0.000477469 -1.43198e-19)
(-2.59667 -0.00118894 -2.104e-19)
(-2.59365 -0.00281895 1.37382e-19)
(-2.58946 -0.00442137 0)
(-2.58409 -0.00600231 6.57874e-20)
(-2.57753 -0.00756218 0)
(-2.56977 -0.00910083 1.25211e-19)
(-2.56082 -0.0106174 -6.1141e-20)
(-2.55067 -0.0121109 -5.95404e-20)
(-2.53931 -0.0135803 0)
(-2.52675 -0.0150244 -1.68185e-19)
(-2.51298 -0.0164423 1.08833e-19)
(-2.49801 -0.0178327 5.25286e-20)
(-2.48183 -0.0191947 0)
(-2.46445 -0.0205271 4.89712e-20)
(-2.44588 -0.0218289 1.41817e-19)
(-2.42612 -0.0230992 0)
(-2.40518 -0.0243369 8.72051e-20)
(-2.38305 -0.0255419 8.33701e-20)
(-2.35977 -0.0267131 7.94655e-20)
(-2.33533 -0.0278501 0)
(-2.30974 -0.0289515 0)
(-2.28303 -0.0300166 0)
(-2.2552 -0.0310443 -3.1819e-20)
(-2.22627 -0.0320366 -2.91591e-20)
(-2.19624 -0.0329974 0)
(-2.16513 -0.0339372 -5.00618e-20)
(-2.13295 -0.0348631 -4.55442e-20)
(-2.09968 -0.0357714 0)
(-2.06536 -0.0366454 -3.56655e-20)
(-2.03004 -0.0374608 -6.29794e-20)
(-1.99376 -0.0382117 2.60234e-20)
(-1.95651 -0.0389097 2.23308e-20)
(-1.91833 -0.0395661 0)
(-1.87923 -0.0401858 0)
(-1.83923 -0.0407646 0)
(-1.79837 -0.0413072 3.62378e-22)
(-1.75665 -0.0418116 3.67205e-21)
(-1.71412 -0.042279 1.97274e-20)
(-1.6708 -0.0427118 -1.618e-20)
(-1.62671 -0.0431104 2.0451e-20)
(-1.58188 -0.043476 2.77252e-20)
(-1.53634 -0.0438091 0)
(-1.4901 -0.0441103 0)
(-1.4432 -0.0443827 -4.4345e-20)
(-1.39566 -0.0446231 0)
(-1.34749 -0.0448402 0)
(-1.29873 -0.0450272 1.28645e-19)
(-1.2494 -0.0451894 0)
(-1.19952 -0.0453218 7.69701e-20)
(-1.1491 -0.0454285 -8.55354e-20)
(-1.0982 -0.0455046 0)
(-1.04682 -0.0455578 9.81951e-20)
(-0.995006 -0.0455856 0)
(-0.942753 -0.0455988 0)
(-0.89011 -0.0455958 -1.22604e-19)
(-0.837059 -0.0455879 2.59203e-19)
(-0.78364 -0.0455728 -1.3859e-19)
(-0.729823 -0.0455599 0)
(-0.675645 -0.0455453 0)
(-0.621071 -0.0455328 1.62109e-19)
(-0.566138 -0.0455202 0)
(-0.510819 -0.0455038 1.80034e-19)
(-0.45514 -0.0454929 0)
(-0.399092 -0.0454834 0)
(-0.342677 -0.0454835 0)
(-0.285888 -0.0454965 2.20619e-19)
(-0.228714 -0.0455235 0)
(-0.171148 -0.0455628 -2.41543e-19)
(-0.113185 -0.0456062 0)
(-0.0548466 -0.0456362 0)
(0.00385117 -0.0456178 5.41697e-19)
(0.0628524 -0.0454988 -5.47275e-19)
(0.122013 -0.0452155 0)
(0.181011 -0.044635 0)
(0.23977 -0.0434789 0)
(0.295954 -0.0412489 1.66757e-18)
(0.355049 -0.0369922 0)
(0.391013 -0.024147 -1.15691e-18)
(0.00092795 0.0273197 3.45894e-22)
(0.00188347 0.0497914 4.4434e-18)
(0.00614118 0.0471834 0)
(0.0231455 0.0186965 -3.41018e-18)
(0.0625084 -0.0433402 0)
(0.119208 -0.122176 0)
(0.181293 -0.192088 -3.3236e-22)
(0.239341 -0.238424 3.44217e-19)
(0.288936 -0.258884 2.89949e-19)
(0.329265 -0.25827 2.55294e-19)
(0.361359 -0.243225 0)
(0.386868 -0.219619 0)
(0.407313 -0.191833 -2.05948e-19)
(0.423772 -0.162619 -3.95663e-19)
(0.43696 -0.133486 3.84938e-19)
(0.447331 -0.105176 0)
(0.455178 -0.0779812 3.76413e-19)
(0.460706 -0.0519478 -1.88166e-19)
(0.464084 -0.0270253 0)
(0.46545 -0.00308962 3.89885e-19)
(0.465181 0.0201109 1.94749e-19)
(0.46358 0.0429428 -3.94546e-19)
(0.460956 0.0656694 -2.00532e-19)
(0.457484 0.0883069 0)
(0.453016 0.11054 4.28518e-19)
(0.447029 0.13165 4.46025e-19)
(0.438595 0.150481 0)
(0.426416 0.165471 4.897e-19)
(0.409066 0.174821 0)
(0.385356 0.176846 5.55144e-19)
(0.354879 0.170436 3.02493e-19)
(0.318498 0.155532 0)
(0.278588 0.133161 0)
(0.238916 0.105224 0)
(0.203819 0.0740756 0)
(0.177206 0.0416322 0)
(0.162169 0.00817049 0)
(0.158421 -0.0270974 1.40929e-18)
(0.165875 -0.0637029 -1.82755e-18)
(0.179603 -0.0960556 0)
(0.190906 -0.112799 0)
(0.193217 -0.108401 0)
(0.185998 -0.0878352 -1.63139e-22)
(0.17045 -0.0583158 6.96777e-19)
(0.147806 -0.0281912 1.52113e-18)
(0.119243 -0.00148125 -1.70242e-18)
(0.0842314 0.0225886 -1.00535e-18)
(0.0358547 0.0412859 1.25532e-18)
(-0.0482892 0.0624914 -7.98085e-22)
(-0.178638 0.114787 7.1522e-19)
(-0.34316 0.186792 0)
(-0.527186 0.264392 3.49591e-19)
(-0.717575 0.340079 5.16605e-22)
(-0.903319 0.406439 0)
(-1.07539 0.458052 0)
(-1.22864 0.494491 -1.63856e-19)
(-1.3579 0.51382 0)
(-1.46311 0.515562 0)
(-1.54705 0.501513 1.28133e-19)
(-1.61355 0.475158 2.3871e-19)
(-1.66683 0.440458 -1.11951e-19)
(-1.71089 0.401246 0)
(-1.74906 0.360789 1.03357e-19)
(-1.78379 0.321566 0)
(-1.8167 0.285213 9.88454e-20)
(-1.84867 0.252601 9.45181e-20)
(-1.8801 0.224018 -1.8543e-19)
(-1.91109 0.199351 -9.08534e-20)
(-1.9416 0.178262 0)
(-1.97149 0.160314 1.73152e-19)
(-2.00066 0.145045 0)
(-2.02898 0.132012 2.49726e-19)
(-2.05637 0.120819 1.6354e-19)
(-2.08277 0.111125 1.60705e-19)
(-2.10814 0.102648 -1.58018e-19)
(-2.13247 0.0951578 2.33209e-19)
(-2.15575 0.0884642 0)
(-2.17797 0.0824157 0)
(-2.19914 0.0768908 -1.48275e-19)
(-2.21927 0.0717938 -2.19084e-19)
(-2.23838 0.0670483 0)
(-2.25646 0.0625937 7.08771e-20)
(-2.27354 0.0583814 0)
(-2.28961 0.0543724 -2.06132e-19)
(-2.3047 0.0505352 -1.04577e-22)
(-2.31879 0.0468438 9.69863e-23)
(-2.3319 0.0432772 1.31162e-19)
(-2.34404 0.0398174 0)
(-2.3552 0.0364496 -1.27065e-19)
(-2.36539 0.033161 -5.96676e-23)
(-2.3746 0.0299407 0)
(-2.38285 0.0267801 0)
(-2.39013 0.0236721 0)
(-2.39644 0.0206123 1.16862e-19)
(-2.4018 0.0175992 0)
(-2.40619 0.0146346 0)
(-2.40964 0.0117237 0)
(-2.41215 0.00887497 0)
(-2.41371 0.00609713 0)
(-2.4143 0.00338931 1.04354e-19)
(-2.41387 0.000725192 0)
(-2.41237 -0.00192779 9.98617e-20)
(-2.40977 -0.00456866 9.76166e-20)
(-2.40605 -0.00718213 -9.53507e-20)
(-2.4012 -0.00976517 0)
(-2.3952 -0.0123168 -9.07481e-20)
(-2.38805 -0.0148355 0)
(-2.37974 -0.0173199 -8.6046e-20)
(-2.37027 -0.019768 8.36555e-20)
(-2.35962 -0.0221782 2.44115e-19)
(-2.34781 -0.0245486 0)
(-2.33482 -0.0268774 2.29407e-19)
(-2.32065 -0.0291628 7.42961e-20)
(-2.30531 -0.0314029 0)
(-2.28879 -0.033596 1.37964e-19)
(-2.27111 -0.0357403 1.32798e-19)
(-2.25226 -0.0378341 -1.9106e-19)
(-2.23224 -0.0398757 0)
(-2.21107 -0.0418639 -5.814e-20)
(-2.18875 -0.0437974 -5.5416e-20)
(-2.16529 -0.0456751 -1.58665e-19)
(-2.14069 -0.0474955 0)
(-2.11498 -0.0492567 0)
(-2.08816 -0.0509565 0)
(-2.06024 -0.0525928 -4.20764e-20)
(-2.03124 -0.0541634 0)
(-2.00117 -0.0556672 0)
(-1.97004 -0.0571048 3.24198e-20)
(-1.93786 -0.0584791 2.93906e-20)
(-1.90464 -0.0597958 0)
(-1.87041 -0.0610659 0)
(-1.8352 -0.0622846 4.01969e-20)
(-1.79904 -0.063435 0)
(-1.76194 -0.0645128 -2.74885e-20)
(-1.72393 -0.0655216 -2.20109e-20)
(-1.685 -0.0664684 0)
(-1.6452 -0.0673508 0)
(-1.60455 -0.0681699 2.31581e-21)
(-1.56306 -0.0689264 -1.03365e-21)
(-1.52076 -0.0696216 -1.04733e-21)
(-1.47767 -0.0702575 0)
(-1.43384 -0.0708355 -5.07586e-20)
(-1.38927 -0.0713569 0)
(-1.34399 -0.0718229 0)
(-1.29803 -0.0722353 0)
(-1.25142 -0.0725963 5.41471e-20)
(-1.20417 -0.0729069 0)
(-1.15632 -0.0731711 -1.35014e-19)
(-1.10787 -0.0733896 -7.59989e-20)
(-1.05886 -0.0735617 0)
(-1.00929 -0.0736883 -9.08926e-20)
(-0.959215 -0.073766 0)
(-0.908634 -0.0737969 0)
(-0.857592 -0.0737816 -3.38778e-19)
(-0.806098 -0.0737273 2.40568e-19)
(-0.75419 -0.0736386 0)
(-0.70187 -0.0735249 2.71917e-19)
(-0.649166 -0.073391 -1.45084e-19)
(-0.596074 -0.0732461 0)
(-0.542613 -0.0730917 0)
(-0.488771 -0.0729341 0)
(-0.434561 -0.0727685 -5.2989e-19)
(-0.379975 -0.0725983 0)
(-0.325023 -0.0724149 -1.94027e-19)
(-0.269705 -0.0722284 0)
(-0.214026 -0.0720369 0)
(-0.157981 -0.0718479 0)
(-0.101565 -0.0716659 0)
(-0.044769 -0.0714926 0)
(0.0124212 -0.0713239 0)
(0.0700125 -0.0711446 -4.93046e-19)
(0.127989 -0.070932 0)
(0.186314 -0.0706382 -2.55126e-19)
(0.244921 -0.0701904 7.73203e-19)
(0.303711 -0.0694953 0)
(0.36245 -0.0683889 0)
(0.421138 -0.0665791 -5.34803e-19)
(0.478189 -0.0635874 -5.44778e-19)
(0.537635 -0.0583825 5.52625e-19)
(0.584035 -0.0455065 5.70623e-19)
(-0.00125224 0.0267119 -5.95534e-18)
(0.00071849 0.0387333 -7.05423e-18)
(0.0187672 0.00620279 -3.47357e-18)
(0.0671239 -0.0792942 -9.22846e-19)
(0.136162 -0.183806 0)
(0.206505 -0.27001 7.54675e-19)
(0.264749 -0.320919 -2.9749e-19)
(0.307067 -0.337754 0)
(0.335585 -0.329857 -2.23303e-19)
(0.354387 -0.307221 0)
(0.367166 -0.277185 3.81809e-19)
(0.376453 -0.244163 0)
(0.383702 -0.210497 1.72667e-19)
(0.389616 -0.177315 3.35254e-19)
(0.394457 -0.145117 -3.2921e-19)
(0.398271 -0.114102 0)
(0.40103 -0.0843323 -3.2649e-19)
(0.4027 -0.0557996 0)
(0.40327 -0.0284677 0)
(0.402755 -0.00228039 -3.42811e-19)
(0.401255 0.0228716 0)
(0.398894 0.0471387 -7.74207e-22)
(0.395918 0.0706881 0)
(0.392646 0.0936596 0)
(0.389369 0.116087 7.21522e-22)
(0.386277 0.13781 -3.87734e-19)
(0.38333 0.158371 -4.07504e-19)
(0.380151 0.176917 -4.29161e-19)
(0.375926 0.19213 0)
(0.369445 0.202261 -9.63962e-19)
(0.359388 0.205339 0)
(0.344799 0.199577 -5.52004e-19)
(0.325609 0.183817 0)
(0.302914 0.157888 0)
(0.27894 0.122835 7.51966e-19)
(0.256689 0.0805808 0)
(0.239023 0.0336177 -9.88945e-19)
(0.22723 -0.0156631 -2.47149e-21)
(0.219379 -0.0633528 1.79806e-18)
(0.207087 -0.0948841 -1.50986e-18)
(0.184964 -0.0990574 0)
(0.15254 -0.0800859 0)
(0.110341 -0.0474084 -6.9976e-19)
(0.0597065 -0.00625529 0)
(-0.00153316 0.0386733 -8.56671e-19)
(-0.0864401 0.0862485 7.3394e-19)