/*--------------------------------*- C++ -*----------------------------------*\
| =========                 |                                                 |
| \\      /  F ield         | OpenFOAM: The Open Source CFD Toolbox           |
|  \\    /   O peration     | Version:  2112                                  |
|   \\  /    A nd           | Website:  www.openfoam.com                      |
|    \\/     M anipulation  |                                                 |
\*---------------------------------------------------------------------------*/
FoamFile
{
    version     2.0;
    format      ascii;
    arch        "LSB;label=32;scalar=64";
    class       volScalarField;
    location    "30";
    object      T;
}
// * * * * * * * * * * * * * * * * * * * * * * * * * * * * * * * * * * * * * //

dimensions      [0 0 0 0 0 0 0];

internalField   nonuniform List<scalar> 
73792
(
-1.21837e-33
-7845.2
-0.00216783
-8.97185e-15
-0.000682713
-1.09032e-35
-10981.3
-0.130885
-4225.41
-1.03697
-1.27922e+07
-2.00937e-30
-7.67734e-30
2.46182e-58
-78836.9
-1.03129e-25
-3.1545e-14
-2.02335e+07
-1.70083e-07
-1390.56
-13.2871
-1.10888e+07
-4.55322e-209
-3.8898e-42
-0.0625078
-8.2192e-29
-2.6136e-63
-1.46641e-202
-2.23357e-87
0
-2.36098e-41
-2.74787e-06
-1.49097e-23
-0.172761
-16.9918
-8.90844e-35
-5.96964e-84
-2.09299e-18
-6.84892e-102
-5.85182e-34
-3.45247e-17
-4.72794e-81
-1249.23
-1498.39
-3.4646e-22
1.51878e-263
1.86368e-47
-378579
-1.14292e-36
-4.50809e-08
-9.25784e-54
-2.74708e-19
-5.40906e-28
-7.19757e-08
-4.00113e-89
-9.39459
-7.56549e-15
-2.81218e+07
-7.4592e-17
-213.999
-2.44088e-27
-1.13726e-318
-1.46479e-11
-2.26944e-07
-8621.76
-45828.6
-1.00424e-16
2.9663e-32
-111391
-1.94299e-10
-9.09368e-16
-40.6968
-3.24125e-23
-1.88898e-199
-3.73178e+07
-2.45946e-29
-2.7873e-12
-4.75331e-33
-0.0183327
-29908.4
-0.0408525
3.15568e-46
-171380
-1.76354e-20
-4.92188e-15
-26466.7
-1.77294
-2.07838e-20
-0.0077775
-1.25743e+06
-9.06081e-14
-6.84269e-34
-40367.6
-305.139
-1.90499e-22
-3.05995e-47
-3.31666e+06
-1.2588e+06
-7.21358e-155
-1.1848e-65
-1.95359e+07
-1.44663e-55
-1.50935e-82
-2.04906e-203
-1.03075e-23
-1.12059
-4.74697e-10
-4.78446e-66
-5.01696e-65
-1.53232e-26
2.73617e-52
-5.95005e-100
-0.000775286
0
-6568.13
-7.09483e-74
9.72316e-58
-34.6696
-2.00113e-32
-12911.3
-5.64894e-05
-1.42612e+06
-1.08148e-05
-3.96668e-58
-9.42498e-202
-1.49843e-21
-3.22563e-08
-79307.9
-98.8477
-2.15687
-184999
-2.27493e+07
-7.37966e-21
4.02536e-208
-64751.6
-1.02703e-16
-1.24993e-49
-6.82162e-07
-5.72377e-14
-8.37907e-22
-8.36048e-09
-8.49891e-39
-1.75878e-27
-9.20232e-49
-1.08775e-10
-7.23088e-18
-2.11867e-09
-1.21063e-10
-4.61576e-76
-4.21366e-50
-4.22222e-28
-2.94073e+06
-1.10046e+07
-17032.3
-211408
-7.80933
-1.88166e-13
-5.98395e-05
-1.01097e-08
-2.82154e-28
9.12511e-44
-1.31317e+06
-7.66562e-24
-1.22816e-26
-2.83927e-45
-5.87838e+06
-2.03909e-62
-307922
-5565.04
-5.36395e-27
-3.85662e-19
1.26688e-98
-9.84333e-116
-5.8378e-08
1.18104e-94
-1302.98
-74.6384
-33649.6
-3.91419e-19
-1.81847e-61
-2.08306e-07
-3.98398e-27
-1.40597e-18
-3.6539e-27
-8.56095e-78
-2.11479
-273.763
-6.15071e-14
-3.94013e-40
-358706
-6.18181e-05
-3.33502e-28
-0.000154357
2.83853e-59
-0.6048
-3.92957e-36
-2.77989e-07
-6.0397e-242
4.81746e-55
-983433
-5.60927e-318
-6.09382e-275
-3.34541e-19
-3.25334e-54
-255987
-1.14043e-28
3.34812e-29
-3.64911e-53
-115202
-47.9683
-7.44461e-55
-2.85902e-09
-3.50622e-52
-2.02944e-38
-1.07991e-22
-3.11905e-26
3.375e-201
-8.66885e-11
-4.29804e-60
-2.04811e-08
-2.55459e-12
-2.17737e-78
-1.0519e-07
-5712.22
-2.44823e-21
-1.31681e-16
-0.290394
-2.94708e-56
-7.45595e-36
-2.10048e-05
-1.58905e-168
-9.13165e-17
-4.18206e-74
-0.674513
-1.03317e+07
-2.11574e-200
-547.81
-28597.1
-7.65626e-33
-1.93152e-293
-5.84828e-17
5.63753e-181
-9.33741e-32
-4.36278e-12
2.27365e-35
-4.09258e+07
-3.91927
-9.93007e-08
-1.24865e-12
-0.739915
-1.13507e-18
-2.24343e-20
-1.35219e-16
-20843.8
-6.61672e-34
-1.49068e-49
-1.44519e-45
1.00829e-63
-1.71375e-28
-8.61752e-10
-3.39729e+06
-7.55898e-17
-498.181
-2.48605e-10
-1.65905e-08
-3.99972e-23
-4.60525e-24
-3.87187e-79
-9.48482e-185
-4.42906e+06
-5422.16
1.32277e-30
-757965
-0.00202953
-4.01729e+07
-0.00109475
-659.096
-3.31335e-27
-4.53812e-33
-2.19528e-24
-6.18605e-62
-0.000636594
-2.88288e+06
-3.02907e-11
-0.778939
-1.15868e-11
-1.25914e-20
-3.59637e-64
4.47914e-116
1.05332e-232
-76.085
-1.20126e-35
-3.41459e-24
-9.61261e-07
-2.46324e-10
-3.00625e-28
-1.67017e-31
-4.80757e-08
-6.54586e+07
-669012
-5.95887e-28
-4.33039e-59
-0.000136671
-7.04846e-23
1.22175e-167
-1.95875e-18
-8.03385e-07
-2.63441e-07
-2.86454e-54
-2.31271e-27
-3.5081e-214
-1.31436e-62
-2.71231e-38
-1.85636e-26
9.63671e-27
-1.93639e-12
-5.14424e-26
-9.00048e-183
-1.36075e+06
-1.11411e-24
-476846
-2.0144e-65
-7.02866e-18
-3.0227e+07
-9.62768e-16
-147518
-4.54609e-19
-0.00934701
-3.73765e-13
1.31295e-36
-1.13212e-33
-5.60996e-17
-9.85982e-24
-2.56117e-11
-5.78654e-26
-3.07334e-25
-7.32228e-36
-1.61295e-28
-1.55778e-53
-2.56708e+06
-0.0235474
-1.27118e-10
-1.16969e-12
-17304.6
2.51465e-126
-21.315
-3.1058e-11
-5.85281e-17
-6.84993e-26
-1.09933e-10
-8.81471e-14
-2.33667e-35
6.49058e-57
-71290.7
-1.56913e-32
-7.74672e-49
-2.08995e-06
-7.97709e-24
-2.68665
-4.80665e-15
-3.7349e-16
-4.06287e-10
-6.41308e-24
-1505.68
-9.10648e-09
-2.04254
-1184.18
-7.56739e-58
-3.93737e-27
-368.294
-4.99139e-19
7.91473e-76
-5.98706e-06
-1390.48
-2.46589e-11
-430.617
-0.0576342
-0.00135615
3.81615e-92
-1.01224e-19
-5.1034e-20
-9.24321e-10
-6.72655e-09
-3.12848e-127
-4.75505e-14
-6.13936
-3.96479
2.72555e-55
-4.85183e-12
-8.17821e-26
-2235.89
-3.08501e-24
9.84707e-53
-3.78177e-13
-7.26024
-4.77573e+06
-1.95378e-09
-5.60731e-158
-4.79974e-57
-4.18892e-21
-1.93285e-38
-1.33401e-57
1.8773e-169
-3.74931e-57
-7.35718e-10
-5.26268e-15
-3.31998e-35
-1.08302e-60
-1.50586e-21
-0.0103981
-1.0437e-22
-2.66742e-15
-1.98732e-55
-4.26894e-14
-0.180398
-2035.35
-0.423667
-5.57864e-15
-7.90532e-100
-5.41762e-58
-1.47782e-35
-6.21163e-67
-7.75424e-23
-2.26529e-73
-3.91029e-46
-2.23401e-20
-3.33393e-36
-2.26131e-27
-1.02832e-33
-4.81728e-20
-5.87583e-10
-1.80953e-18
-4.00341e-21
-2.55378e-16
-2.30478e-51
-1331.28
-5.18221e-124
-1.73501e-21
-9.90154e-14
-3.67028e+07
-0.000302701
-1.23348e-08
-5.77103e-18
-5.06328e-17
-0.000759437
-4.31132e-15
4.83355e-18
-1.79227
-5.42608e-15
8.60763e-63
-4.64453e-155
-57540.7
-2.60937e-22
-2.20787e-73
-2.1944e-49
-299193
-6.8279e-06
-1.32264e-62
-1.23857e+06
-6.50895e-38
-4.67358e-24
-1.09177e-64
-16371.7
-2.56908e-19
-2.23801e+07
-177.79
-4.08958e-84
-3.41475e-13
1.08851e-75
-0.0122302
-2.17638e-27
-1.25703e-40
-2486.27
-78429.4
-6.76002e-49
0
-1.61595e-18
-7015.7
-7.70272e-05
-204356
-6.61574e-33
-9.86051e-23
-3.8808e-28
-4.69687e-26
1.33871e-62
-14371.1
8.06507e-245
-9.25255e-32
-0.0939405
-988.576
-0.00742191
-1.70642e+07
-0.210763
-0.000150984
-19678.5
-25175.4
-0.0626794
-212603
-2.41796e+07
-3.92827e-20
-2.0133e-07
-7.62377e-87
-1157.89
-1.05374e-11
-0.0153206
-1050.81
-1.92783e-17
-5.82909e-40
-2.34062e-07
-3.03449e-137
-8.88464e-69
-222238
-92.5364
-0.991529
-7.9552e-34
-10.2178
-1.79579e-46
-2.10296e-11
-7.6195e-60
-6.49516e-10
6.49797e-159
-9.03447e-08
-1.17572e+07
-6.73945e-29
-15247.5
-8.3994e-11
-0.0101999
-249795
-2.4278e-19
-2.57399e-32
-2807.21
-8.26357e-72
-9.94271e-21
2.71367e-55
-184776
-225562
-8.0756e-12
-8.48584e-07
-5.05432e-19
-3.06901e-12
-260036
-6.91582e-75
-6.10025e-59
-36325.5
-3.45044e+07
-2.06954e-73
-87100.4
-2.69666e-14
-5.93272e-20
4.92205e-69
6.24134e-93
-160046
-8.68792e-11
2.56987e-197
2.51945e-272
-7.52191e-55
-1.17796e-14
-1.43813e-05
-6.61272e-62
-2.7978e-23
-3.01423e-82
-0.0169484
-5.1988e-72
-7.60923e-13
-27534.6
-3.47078e-09
-46917.4
-1.73574e-17
-16.9686
-7.92937e-17
-1.87473e-16
-6.79836e-12
-0.000228867
-0.145395
-4948.2
1.06966e-32
-1.46729e-13
-6.23213e-07
-1.21388e-14
-2.92893e-15
-0.0924031
-1.24234e-08
-1.85691e-16
-8.46345e-282
-545.902
-2.45858
-2.96479e-16
-7.31881e-195
-5.94171e-12
-9.56392e-06
-2.89244e-16
1.29019e-40
1.03191e-43
-0.017528
-3.95102e-07
1.49702e-53
-213.181
-4.65616e-15
-1.15402e-28
-2944.84
-6.13381e-11
5.48512e-306
-1.10265e+06
2.14634e-10
-19991.6
-1.80133e+07
-2.18659e-17
-1.04156e-17
-1.29124e-14
3.71573e-125
-7.09222e-52
-0.312369
-6.75594e-26
-12.0785
-1.22947e-21
-236915
-3.28509e+07
-0.00779365
-8.43296e-66
-8.66793e-07
-1.00421e-282
-1.06903e-19
-0.28748
3.25946e-275
-4.24154e-06
-233545
-6.23031
-1.09313e-13
3.73233e-42
-7.98581e-28
-6.6671e-12
-7.72296e-10
2.03089e-25
-4.88629e-13
-1.09483e-10
-5.29854e-17
-8.75678e-197
-150124
-0.234935
5.15092e-105
-6.56638e-12
-118.456
-7.2137e-21
-6.33859e-12
-6.16477e-16
-1.06158e-10
-5.29808e-26
-1.38658
-0.173881
-5.29591e-10
-2.31414e-23
-1.50193e-40
-9.19654e-51
-1.1757e-53
-1.70922e-22
-64.4941
-2.2107e-20
-1.89316e-08
-4.41594e+07
-1.27259e+07
-0.100566
-1.59465e-09
-6.95597e-29
-0.0507146
-6.35451e-07
-2.26141e-23
-568046
-1.7808e-14
-4391.5
-32202.7
-2.50707e-18
-6.49682e-36
-1.26233e-16
-0.00667594
-1.2229e-15
-13.1752
-5.54486e-11
-0.0847708
-8.01359e-21
-2.24915e-49
-8.78763e-27
4.96055e-38
1.65265e-192
-308.447
-3.23961e-25
-4.91537e-55
-4.91376e-06
-1.67032e-12
-1.36512e-38
-6.66396e-38
-4.38584e-13
-3.09997
-4.39394e-75
-4.24328e-16
-1.61138e-08
-328.573
-2.52961
-2.92562e-06
-1.00441e-32
-3.65607e-21
-0.00441012
7.28255e-153
-0.000809545
-2.91578e-24
-2.39339e-24
-0.183712
-3.11676e+07
-63288.3
-2.39051e-46
-1.1523e-33
-5.05906e-43
-2.39334e-57
-2.29896e-18
-4.46353e-25
-1.1966e-32
-2.22348e-50
-6.18149e-39
-1.61294e-29
1.16031e-108
-0.041371
-3.20847e-17
-1.16217e-50
-5.7009e-08
-9.36584e+06
-7.51718e-194
-2.2551e+06
-440673
-2.64401e-24
-280.042
-0.000995767
-4.05482e-07
-1.87667e-20
-0.0860334
-2.89001e-41
-4.40668e-36
-2.39011e-24
-3.49744e-16
-3.00129e-33
-2.53232e-06
2.08664e-71
-2.67478e-21
-1.78934e+07
-9.02627e-38
-1.67063e-05
-2.5405e-25
-864967
-7.508e-26
-1.37884e-10
-3.50041e-60
-3.17974e-18
0
-8.78409e-32
-1.0377e-181
-3.54159e-14
-9.1778e-35
-2.1223e-183
-3.35397e-27
-5.91919e-125
-249774
-3.83003e-27
-1.71553e-216
-3.63621e-11
2.63748e-128
-3.10807e+06
-6.52442e-08
-1.06246e-148
-1.00498e-150
-227.475
1.48409e-54
1.7543e-50
-8.21064e-18
-2.10143e-58
-1.70222e-25
-5.69428e-93
8.39595e-28
-4.24536e-69
-0.0802535
-2.45464e-10
-7.03102e-218
-6.48463e-28
-2.61099e-27
-1.79062
-2.61481e-42
6.71908e-71
-5.69256e-09
4.6988e-56
-1.74198e-18
-989146
-9.45639e+06
-2.71235e-26
-2.16141e+06
-1.53277e-27
-92.7269
-6.08426e-21
-3.14121e-08
-61514.1
-7.14968e-27
-1.60682e-56
-5.98206e-28
-3.30106e+06
-6.23008e-24
3.31632e-64
-0.0145893
1.35485e-73
-1.02335e-47
-8.41568e-23
-7.97898e-77
-1.1844e-21
-1578.47
-1.73467e-11
-4.5187e-20
-5.98485e-22
-3.94705e-70
-1.06882e-27
-1.90569e-16
-20671.6
-1.75592e+07
-1.60936
-8.19785e-09
-1.28062e-60
-6.40823e-05
-2.88873e-23
-0.248324
-1.65093e-14
-3.26038e-28
-6.18023e-15
-2.0017e-46
1.13291e-17
-34.6873
8.58823e-73
-2.09481e-16
-7.0594e+06
-0.00141223
-1.03182e-18
-4.1723e-20
-2.31977
-146717
-2.32451e-12
-3.30812e-25
-1.20227e-09
2.83476e-238
-9.45643e-187
-2.97486e-08
-9.63496e-12
-4.16119e-25
-418.435
-6.39402e-79
-1.7161e-19
-0.0241822
8.82521e-48
-0.824719
-2.71048e+06
6.35503e-247
-3.7652e-15
-1.42518e-28
9.68117e-263
-0.0275156
-0.00106838
1.81651e-57
0.00370844
-0.000117614
-8.0746e-15
1.44859e-55
-387404
-1.83875e-86
-3.3217e-25
-3.66204e-26
-8487.78
-1.98308e-11
-1.25194e-16
-4.49202e-54
-2.61153e-73
-16.2788
-9.60791e-16
-6.08918e-18
-86137.7
-1.17954e-06
-3.44414e-12
-2.89526e-79
-1.08969e-23
-4.67344e+07
-2.61365e-35
-39.353
-1.04232e-11
-1.71486e-45
-1.82439e-12
-1.15113e-12
-0.000104733
-6.24114e-73
-3.69203e-11
-0.00315978
-2.49906e-91
-3.68328e-66
-6.34316e-08
9.45412e-107
-3.54153e-71
-1.34722e-52
-181.299
-7.97495e-26
-1.58268e-09
-2.10246e-19
-3.02926e-74
-5358.88
-0.000197257
-5.31073e-24
-17.5515
-7.08819e-05
-7.37006e-19
-0.516501
-4.9637e-09
-5.05691e-75
-1.09336e-72
-0.0197489
-1.25703e+07
-1.1191
-4.24984e-17
-1.72594e-27
-8.45447e-27
-8.78496e+06
-1.23806e-51
-0.00280238
-1.29137e-26
-0.169258
1.4728e-106
-1.92956e-27
-4.65111e-10
-1.21771e-309
5.06724e-240
-5.26858e-25
3.56265e-57
-1.21618
-1.47666e-52
-1.36751e-14
-2.51944e-10
-1.4426
-707543
-4.53864e+06
7.01756e-106
-6661.72
-1.71609e+06
-8.1947e-33
-0.649081
-4.66827e-37
-7.86434e-39
-1.71808e-14
-4.61078e+07
-0.885202
-7.12782e-28
2.92553e-65
-4.73451
-8.12538e-19
-5.92062e+06
-1.39885e-15
1.75356e-58
-1.69904e-25
7.53132e-107
-6.87684e+07
-2.98789e-25
-0.000255523
-1.13388e-08
-7.76211e-26
-5.5831e-58
-2.75484e-10
-3.75328e-57
-1.34407e-09
-934.459
-626309
-54.9164
-9.82269e-37
-1.46028e-30
-9.36791e-22
-1.00276
-5.01501e-52
2.59114e-28
-3.36825e-14
-4.53832e+07
-0.352545
-3.15055e-33
-1.39848e-10
-1.33641e-14
-3.18256e-21
-0.0291501
-1.6397e-28
-1.17889e-32
-8.92592e-19
2.61959e-238
0.00153392
-6.47772e-149
-6.06738e+06
-1682.46
-1.60081e-15
-647.238
-17660.6
-2.02726e-24
-72598.9
-3.69561e-06
-2.16215e-19
-3.2715e-22
-1.76987e-13
-2.5745e-16
-5.94587e-279
-7.64691e-31
-7180.31
-3.27672e-13
-740.157
-3.55921e-107
-1.02414e-25
-8.09947e-319
-0.101981
-0.00591445
-3.16842e-18
-1.4222e-51
1.96376e-51
-9.4668e-29
-7.03084e-80
-6.40264e-11
-562465
-1.10785e-39
-1.42538e-22
1.58859e-39
-23.2883
-1204.18
-235684
3.20748e-123
-46442.4
-1.47929e-06
-5.92303e-27
-1.69149e-15
-3.27327e-18
-0.000372754
-23.3807
-12782.6
-2.18818e-36
-5.0667e-26
-2.59228
-1291.29
-2.05208e-33
-7.09426e-284
-2.31215e-35
-76.2849
-2.59364e-38
-135.649
-4.56987e-39
-6.12034e-13
-14.0512
-1.12502e+06
-9.89025e-11
1.42081e-213
-1.85434e-05
-7.73011e-31
-2.12513e-25
-3.47594e+07
-1.08126e-26
-6.08268e-31
-403.349
-43599.4
-1.77799e-24
-3.19918e-27
-9.14062
-9.62378e-06
-260.577
-3.21257e-27
-7.63181e-24
-1.30589e-15
-7.47512e-61
-1.39684e-15
-3.52548e-33
-6.16181e+07
-2.63415e-07
-0.020977
-8.63427e-28
-4.48217e-67
-3.00539e-09
-6.88491e-11
-1.21566e-24
-1.12891e-19
-8623.63
-8.96531e-11
-2.51869e-54
-4.8553e-16
-4.1497e+07
-2.23641e-25
-7.00792e-23
-8.27217
-2.71165
-2.12076e-203
-1409.36
-2032.4
-1.6294e-10
-3.80607e-55
-2.75745e+07
-7.49692e-29
-1.71836e-23
-5.82641e+06
-4.77772e-19
-9.86666e+06
-4.34194e-07
-1.72455e-55
-6.52323e-40
1.41503e-66
-0.000798699
-2.97414e-75
-4.68813e-29
-4.54366e-32
-6.82167e-20
-0.137716
4.5459e-277
-9.65157e-18
-3.52648e-07
-1.57788e-20
-1.13843e-34
-2.03659e-40
-6.09552e-09
-4.982e-28
2.64422e-215
-56953.7
-6.03123e+07
-1.2085e+06
9.68478e-68
-0.0479463
-9.52292e-62
-6.70341e-50
-3.61069e-22
-1.82875e-13
-1156.51
-0.000183206
-1.1512e-52
-6.85957e-07
-16.8311
-6.22844e-17
-0.000124819
-1.5586e-10
-4.6209e-18
-6.02323e-09
-2.52943e-46
-8.08638e-88
-1.70382e+07
-1.14762e-80
4.7754e-62
-6.80361e-09
-0.000255631
-5.77763e-20
-1.0123e-72
-7.20941e-24
-2.50296e-12
-3.39069e-17
1.52268e-241
2.58224e-50
-2.73469e-210
-1.1463e-33
-51502.8
-3.899e+07
-8.14087e-38
-1.33371e-07
-4.35305e-10
-194815
-5.9441e-06
-2.00566e-46
-2.65339e-12
-9.95795e-10
-5.77415e-25
-1.38447e-12
-1.06648e-22
-619.845
-1.36994e-36
-2.7103e-52
-1.70802e-24
-1.21245e+07
-1.67249e-22
-3.24428e+06
-1.31094e-12
-0.863915
-239.017
-6.46878e-69
-28016.9
-1264.46
-3.39246e-53
-8.65157e-41
-8.2933e+06
-0.000959996
-75.2353
-5596.86
2.05869e-27
-2097.06
-3.71817e-204
-5.4283e-10
-6.139e-07
-3.88931e+06
-8.1285e-29
-5.25486e-15
1.65449e-243
-5.0137
-2.66771e-51
-3.55609e-122
-1.26511e-06
-702.16
-1.40558e-12
-1.53154e-19
-1.54491e+07
-7.33634e-312
-4.17388e-10
-1.01721e-10
-0.000146949
-7.50979e-09
-7.97701e-24
-1.81991e-07
-5.1056e-61
-1.75327e-06
-0.032745
-4.33044e-65
-1.20932e-09
-0.0434198
-0.000264558
-0.000839433
-6.33703e+06
-1.27887e-33
1.63766e-160
-4.03805e-29
-4.67379e-08
-2.34332e-21
-7.18409e-13
-8.38685e-08
-2.14973e+07
9.3437e-71
8.21471e-185
-11.1631
-5.24776e-33
-2.41959e-47
-2.70964e+06
-1.06648e-23
-58.6706
-0.00038486
-3.21503e-24
-6.04868e-21
1.04848e-230
-3.18605e-14
-0.0136968
-8.87322e-21
-4.26332e+07
4.42516e-21
-94161.1
-2.43705e-06
-6.46744e-52
-33948
-4.77266e-05
-9.73683e-13
-6.31873e-06
-7.89324e-23
-1.73331
-3.79613e-13
-0.0608488
-4.33314e-09
-1.3567e+07
-6.91744e-29
-0.120406
-0.00630998
-1.02016e-12
-1.49911e+07
-6023.85
-6.60129
-2.67026e-18
-3.68853e-19
-0.00445446
-8.47057e-40
6.06528e-144
-0.0866315
-1.38462e-18
-1.28852e-38
-4.15029e-12
-8.60382e-13
-2.70247e-07
-2.16136e-17
-4.17323e-68
-7.41531e+06
6.08623e-160
-1.83387e+07
-1.09026e-07
-0.0472388
7.61765e-106
-2.9147e-13
-2.40467e-11
-8.35422e-07
-3.87812e-16
-4.77765e-11
-1.56426e-50
-0.000553274
-99.538
-1.07728e+06
-8.21752e-30
-8.84199e-29
-2.2289e-05
-8.00301e-26
-2.01082e-26
1.39441e-209
-8.30901
1.54091e-186
-4072.93
-3.50055e-27
-1.86598e-07
-1.18906e-21
-7.37212e-17
1.12525e-76
1.08734e-77
2.88345e-74
-2.08239e-26
-2.94132e+07
-0.118072
1.62995e-93
2.67522e-51
-3.22917e-13
-1.36172e-21
-4.44733e-15
-2.95997e-38
-5.97121e-23
2.55313e-76
-3.23484e-67
-2.76476e-12
-3.15286e-65
2.63188e-06
-3.71866e-101
-3.38448e-307
-1.87404e-37
-0.0523992
-24.2863
-2.80653e-72
4.39143e-31
-6.40714e-46
-16.7197
-8.82435e-88
-3.57287e-34
-1244.2
-83.0408
3.08887e-76
-1.16131e-06
-1.5252e-18
-1.29363e-12
1.05492e-185
-0.000449124
1.80532e-122
-1.80477e-08
-1.29675e-79
-0.0503121
-4.62727e+07
-206.268
-0.000555306
-1.93704e-45
-3.78923e-45
-7.67574e-13
-4.18972e-45
-3.56399e-07
-8.09623e+06
-0.000172965
-0.00403279
-2.03844e-64
-7.48213e-09
-4.26234e-40
-0.000191576
-1.41506e-63
-5.94763e-27
-5.40558e-29
-1.44018e-09
-3.20166e+07
-5.45846e-07
-3.78094
-7.97723e-11
-12.2924
-5.82498e-06
1.82274e-155
-4.63194e-15
-1.39105e-92
-2.05024e-16
-1.04865e-06
-2.08204e-22
-13.2705
-81.3464
-0.00101593
-2.26706e-28
-1317.91
-2.77573
-4.27715e-34
-2.09058e-161
-1.84946e-68
-4.43124e+07
-0.00386255
-2.18184e-24
-0.157295
-1.1931e-48
-2.50999e-33
-0.659545
-2.35735e-12
-18216.5
-0.073582
-8.91344e-32
9.40315e-161
3.77256e-29
-1.07369e-19
1.00287e-72
-3.26235e-25
-1.86915e-13
-2.35201e-294
-8.79081e-10
-2.43527e+06
-1.00764e-23
-6.12531e-07
-4.11053e-12
-906.913
-6.16483e-11
-1.18174e-87
-1.05338e-05
-0.056939
-1.13396e-14
-0.713258
1.49201e-131
-5.47949e-08
1.58957e-187
-5.85151e+06
-9.0592e-10
-2.31704e-77
1.00987e-99
-8.38048e-159
-3.23504e-16
-6.95695e-08
-3429.39
-0.000525376
-4.37414e+07
1.54383e-107
-2.15697e-40
-1.37359e-19
-214672
-3.13083e-32
-2.65937e+06
-1.13096e-89
-2.60206e-32
-1.49295e-23
-148.293
-0.371422
-3.54984e-78
-2.79136e-72
-41.801
-3.18268e-63
-2.36286e-16
-1.02585e-13
-31.887
-3.25091e-25
-3.87009e-15
-0.360687
-3.39222e-40
-1.3663e-17
-9.16443e-23
-3.2278e-26
-4.17236
-6.97483e-09
-3.26695e+06
-2.92618e-38
-5.5845e-26
-9.56244e-35
4.56379e-79
-0.791119
-61924.4
-1.54736e-15
-1.25483e-15
-25603.4
-5.17966e-22
-3.13454e-05
-4.61499e+07
-4.6045e-16
-6.24591e-09
-3.09599e-23
-1.99561e-22
-2.74495e-19
2.90363e-165
-6.01585e-09
-6.9079e-23
-41.9195
-2.50042e-284
-1.34021e-14
-2.73374e-14
-2.90999e-19
-0.00020928
-0.00124098
2.62175e-14
-86.3433
5.81786e-162
-339966
-9.61851e-07
-5.92479e-14
-3.76766e-08
-1.2628e-11
-27.3151
-3.88051e-25
-3.31295e-11
-3.19656e+07
-1.79445e-89
-3.59252e-18
-1.01655e-21
-255707
-2.15337e+07
-2.44699e-26
-6.6817e-16
-2.26281e-26
-4.09484e-18
-9228.89
-4.48928e-27
-0.000806745
-8.05402e-19
-4.16524e-22
-9.44996e-25
-4782.22
-1.33644e-13
-6.59748
-4.58738e+06
-3.40997e-63
-15158.6
4.98984e-72
-2.11604e+06
-1.63296e-16
-0.000169392
1.80253e-163
-4.55393e-16
-2.84686e-58
7.89353e-98
-1.40848e-84
-4.92798e-06
-2.48341e-41
-1.00243e-279
2.45006e-11
-1.17339e+06
-4.5254e+07
-3.11618e-55
-4.00742e-71
-0.0629425
-5.63869
-2.67623e+06
-1.3863e-243
-4.32747e-18
-1.7489e-28
-1.6284e-38
-2.56786e-06
-8.65334e-32
-1.31585e+07
-909097
-2.25554e-43
-2.52722e-23
-0.0167996
-3.08183e-19
1.71644e-88
-1.02007e-32
-5354.44
-2.05579e-08
-2.18696e-18
-4.69477e-79
-6.01776e-28
-41262.5
-0.00140169
-2.84035e-21
-6.70486e-20
-492.581
-1.14299e-51
7.43448e-58
-2.31012e-31
-1.03575e-19
-1.24622e+07
-1.40239e-35
-526.453
-1.35492e-27
-281.427
-2593.36
-1.85182e-31
-1.79981e-53
-9.17949e-06
-4.0814e+06
-1.47685e-76
-0.184784
-2.63914e-09
-6.41508e-26
-2.21232e-12
-2.14944e-07
-2.95487e-40
-3.75816e+07
-1.14595e-20
-5.22703e-17
-5.76164e-41
-2.71761e-18
-1.24436e-21
-19.6545
-1.22913e-22
-9.04724e+06
-1.81387e-33
-6.90783e-14
-1.00846e-08
-102.469
-4.3861e+06
-7.26566e-15
-1.53258e+07
-177.206
-3.00319e+07
-44.4548
-4.84833e+07
-2.21488e+06
-16.9263
-6.32917e-20
-1.61226e-16
-3.53125e-10
-0.00048569
-5.52248e-09
-0.00138023
-7.86221e-24
-0.00807238
1.04824e-81
-2.71059e-74
2.48997e-83
-4.82626e-23
-6.35587e-35
-1.57612e-15
-317597
-2.55e-08
-5.59172e-28
-0.00550739
-9.64727e-28
-2.5361e-21
-1.59265e-06
-4.8989e+06
3.06014e-55
-1.18542e-09
-2.88577e-23
-8.2445e-21
-4.65716e-18
-2.6305e-24
-3.88053e-73
-2.90509e+06
-15.4342
-4.13089e+07
1.58343e-114
4.23965e-71
-1.17901e-17
-0.0605383
-0.0102579
-2.35348e-17
-2.26297e-10
-2.96141e-09
-5.06014e-40
-275427
-2.65507e-17
-234261
-6.3765e-136
-3.92697
-1.20956e-24
-74082.3
1.8704e-19
-0.000522062
-4.2302e-26
-5.30542e-314
-1.37567e-09
-3.02698e+06
-2.23084e-22
-0.000848668
-0.302252
-0.00135432
-1.59212e-24
-2.7711e-12
-1.47913e-21
-2.28706e-29
2.0606e-50
-33587.3
-5.08929e+06
-1.69732
-3.49891e-23
7.06022e-114
-1.56441e-05
-701.048
-3.2702e-17
-292954
-5.36542e-16
-8.22452e-20
-1.49462e-16
-6.29174e-21
-3.38828e-83
-4.85437e-23
-6.59869e-307
-2730.83
-992.47
-9.06416e-20
-1.97021e-06
-3.03257e-14
-482118
-4.1179e-27
-5.95543e-32
-5.39614e-23
-3903.82
-1.80471e-06
-6.14517e-27
-38.666
-2.25964e-23
-578431
-1.15278e-52
-2.37295e-07
8.32489e-245
-666487
-2.69767e-07
-2.21163e-20
-8.07747e-15
-1.37848e-77
-2.38716e-12
-8.91976e+06
-3.80608e+07
-4.97013e-10
-2.4225e-24
-3.9043e-06
-5.72707e-06
7.75012e-247
-723254
-7.0131e-08
1.87582e-86
-40413.3
-0.0156661
-9.38007e-33
-558395
-464.937
-8.83814e-32
-0.00225133
-1.88309e-71
-5.28108e-07
-5.46274e-14
-6.45111e-35
-1.95393e-15
-2.27483e-15
-2.30261e+06
-4.39786e-29
-0.0189298
-2.28752e-28
-3.10712e-16
-0.0599534
-2.4511e-25
-5.4561e-38
-1.27432e-40
-13496
6.94702e-95
-3.02504e-79
-8.80352e-09
-410.63
-441.526
-6.46503e-24
-187760
-1.10836e+07
-3.7703e-06
-19.0395
-18196
-4.54094e+06
-1.88389e-06
-0.0660126
-3.75811e-34
-5.69599e-81
-2983.57
-3.11056e-26
-9.35619e-24
-3.82695e+07
-7.69662e-28
-1.36806e-35
-1.20561e-21
-138.508
-1.73703e+07
-1.08794e-32
-0.000151721
6.87787e-56
-1.37394e-38
-7.92506e-05
-6.9978e+07
-5.10369e-23
-2.13262e-19
-1460.9
-5493.89
-1.56325e-59
-2.72537e-14
8.33051e-184
-18659.9
-1.48044e-22
-2.35649e-16
-3.44419e+07
-3.36088e-10
-1.57437e-08
-5.28375e-48
-587.046
-4.45732e-91
-3.07536e-178
-3.71186e-179
-2.73468e-14
3.59599e-45
-0.0680038
-3.08115e-19
-4.50378e-27
-4.85553e-45
-4.70942
-1.42878e-41
2.65029e-207
-33581.1
-9.23171e-49
-1.59867e-21
-2.05769e-10
-9949.54
-2.20184e-58
-7.85052e-26
-1.1707e-12
-50.3778
-2.00789e-27
6.28743e-71
-8.93228e-21
-3.04817e-21
3.28681e-88
-8.33546e-19
-405.179
1.93303e-62
-16914.8
-2.6497e-74
-3.57145e-16
-5.8444e-103
-2.96763e-47
-17522.7
-2.8802e-08
-9.73206e-09
2.24204e-57
-5.83602e-17
1.57607e-71
-2.33029
-189563
-5.54951e-15
-2.98952e-79
-6.32945e-19
-6.70708e-17
-1.42106e-14
-1.72764e-55
-0.0113194
-6.52454e-11
-1.65227
-7.77479e-27
8.21372e-56
-2.6462e-15
-9.39925e-15
-4.66162e-07
-5.5002e-91
-5.58414e-09
-0.445107
5.89589e-111
-9.4551e+06
1.80721e-283
-1.16628e+07
-5.44835e-34
5.09178e-196
-1.11484e-14
-3.06741e-28
-1.24739e-43
1.23547e-57
-0.64744
-1.14844e-15
-9.95193e-27
-9.31096e-22
-1.81522e-47
-1.79188e-73
-2.46712e-23
-0.036452
-4.96903e-21
-2.91426e-17
-6.29474e-52
-2.29678e-46
-2.92306e-24
-227402
-1.49079e+06
-11643.6
-3.63108e-15
-1.81815e-22
-1.41712e-72
-1.58745e-40
-7.88271e-09
-515.679
-1.1882e-07
-9.73344e-07
4.38539e-44
-0.0804658
3.56285e-248
-3.86001e-71
-5.16242e-135
-7.33687e-32
-20450.7
-5.45359e-36
3.74703e-45
-4.42734e-16
-1.41374e-12
-2.81705e+07
-0.00183152
-3.75943e-32
1.54473e-73
-0.0193147
-0.104299
-3.58598e-14
-2.67563e-18
-1.96483e-18
-1.37684e-15
-2.02391e+06
-64.7084
-72652.3
-0.0015098
-0.0105588
-6.94737e-30
2.52744e-202
1.85976e-76
-1193.96
3.12781e-172
-2.55827e-29
-860363
5.29151e-198
-9.0417e-06
-0.0406992
-0.0203456
-3.38512e-36
-1.98262e+07
-3.85278e-26
-2.00688
-1.4897e-36
-616.077
-2.56749e-30
-1.53297e-10
-2.07898e-13
-2.57099e-180
-1263.13
-16392.4
-605.34
-2.23421e-77
-5.12114e-16
1.56451e-124
-8.97376e-08
-6.9081e-20
-2.17958e-09
-0.129514
-4.08443e-08
-4.87254e-22
3.05e-109
-337.906
-1.91682e-16
-1.25747e+06
-36581.8
-3.94899
-0.00114688
-2.32135e-276
-1.52213e-07
-610608
-253458
-1.15914e-08
-3.09546e+07
-69367
-1.28208e+07
-5.9383e-13
-3.29914e-09
-9.01973e-23
1.58041e-170
-1.50036e-29
-2.09477e-17
-1.24502e+07
-1.91753e-24
-1.47611e-24
-4.92789e-12
-1.45091e+06
-13.3779
-1.15196e-12
-2.76508e+06
-0.001613
-207427
-6.38123e-20
-1.76587e-41
-0.114101
-1.46852e-15
-4.58591e-54
-4790.9
-0.00109826
-11.5277
-3.00048e-23
-598061
2.2485e-75
-2.20536e-125
-4.37924e-06
-3.04261e-11
-4.02115e-12
-0.00117014
-2.10655e-05
-4.78802e-64
-128239
-3.1099e-281
-5.90136e-97
-7.00375e-16
-94.9818
-4.09443e-11
-218007
-5.95875e-20
-4.88457e-07
-2.1798e-05
-3.0911e+07
-259379
-1.40378e-13
-3.99421
-8.34072
-1.70365e-14
-3333.84
-4.86709e-52
-1.58593e-35
-2.36856e-70
-5.08572e-33
-9.61458e-131
-8.32487e-22
-4.58776e-22
-9.28499e-06
-3.69024e+07
-0.748465
-4.44816e-13
-153.471
-1.36102e-34
1.94799e-70
-5.60285e-12
-1.22576
-5.53927e-12
-6.49485e-12
-2.48035e-11
-3.67865e-30
-9.88943e-05
8.49631e-23
-6.17507e-50
-3.14204e-14
-7.34013e-53
-8.51424e-09
-453.372
3.83121e-46
-7.2563e-28
2.29081e-55
-1.15064e-37
-2.99721e-07
-5.76931e-47
3.95399e-37
-1.04451e-35
-1401.68
-4.76024e+06
8.97669e-72
-0.0537442
-6.70306e-31
2.04356e-203
-1.48863e-06
-1.43618e-36
-7.50416
-4.97787e-62
-2.26632e-68
-1.4676e-22
-1.06696e-15
-1.54915
-1.54622e+07
-0.497992
3.60995e-186
-5.2762e-13
-110144
-0.00146176
-6.73123e-23
2.66778e-71
-2.09548e-05
1.08116e-316
-0.00465371
-0.0856087
-3.50613e-17
-9.72305e-23
-17.4761
-1.21023e-21
-5.45047e-07
-6.22692e-12
-2.15647e-26
-5.73978e-28
7.27734e-176
-2.89361e+07
-2.47984e-11
-3.5216
6.00067e-109
-1.84927e-17
-0.150208
-40.6902
-2.18029e-95
-2.95201e+07
-1.99965e-25
-3.52104e+07
-4.1195e+07
-3.83233e-11
-1.06738e+07
-28.0822
-6.58156e-22
-3.83129e-21
-4.8696
-2.74662e-30
-5.58449e-33
-7.73594e-09
-14.1435
-4.82854e-06
-3.20277e-05
-2.32283e+06
-4.32707e-11
-9.00225e-11
-1.23229e+07
-2.31857
-6.85584e-10
-1.12716e-20
-1.24475e-51
-4945.64
-54.9482
-1.30623e-35
-5.53194e-09
-0.000278274
1.88706e-199
-1.59185e-20
2.03683e-30
-1.56867e-35
7.28589e-73
-0.897085
-3.44009
-5.30155e-77
-6.67022e-26
-7.34411e-20
-3.31102e-16
-1.79438e-25
-1.87716e-15
-1.23402e-09
-6.46452e-93
-2.31629e-59
-0.0058066
-1.08802e-08
2.59756e-250
-1.52798
-9.96464e-74
-3.81287e-24
-58.1403
-1.44311e-08
-5.09378e-22
-4.87899e-23
-7.6714e-123
6.43788e-57
-3.9251e-05
-5.04582e-12
1.28302e-101
-7.87884e-59
-1.28833e-12
9.10666e-77
4.02141e-06
-5.63802e-14
-5.49172e-27
-7.49813e-12
1.22067e-74
-2.02403e-23
-8.64243e-45
-2.54424
-4.60371e-13
-2.9751e-53
-6.71235e+06
-113.743
-3.22569e-14
-2.30305e-18
-2.10818e-18
2.85388e-315
-3.96969e-12
-6.65935e-10
-162.381
-1.10648
-0.000247876
-4.96305e-07
5.71474e-73
-8.00734e-09
-1.68575e-128
-6.95754e-47
-8.07945e-08
1.0631e-270
-0.000775318
-472.237
-4.25377e-10
-6.06816e-12
-0.339907
-1.11891e+06
-3.76489e-09
-3.33734e+07
-3.92183e-20
-1.71945e-28
-6.82316e-12
4.94066e-324
-6.24259e-58
-1.69538e+07
-4.20431e-26
-3.45191e-32
-5.30098e-26
-0.659403
-1.82549e-40
-1.9308e-06
-1.38225e-33
-1.1032e-09
-0.104917
-143.991
-2.01172e-16
-2.12533e-09
-3.46132e-08
7.01594e-62
-2.03306e-24
-3.37591e-41
-2.41778e-79
-5.02863e-12
-8.41438e-15
-0.017159
-0.0381075
-2.52767e-08
-1.32448e-83
-7.83592
-1.30797e-27
-1.43937e-10
-2.4007e-27
-0.00120736
-1.0969e-69
-1.01272e-22
-0.0124093
-0.00406997
-108.88
-1.97682e-34
-2.86171
-2.91068e-25
-0.000352277
3.14404e-76
-8.44376e-18
-1.8367e+06
-1.02655e-52
-6.65358e-27
-2.40934e-16
-917.06
-1.41996e-25
-3.96347e-67
-1.29572e+06
-2.35466e-07
-1.02241e-31
-0.283487
2.84746e-57
-4.95371e-12
-223804
-6.10955e-17
-1.10418e-19
-1.89022e-29
-4.95306e-77
-2.54147e-28
-0.00125211
-4.07812e-09
-8.98313e-46
-1.0118e+07
-6.0897e+06
-2.53806e+07
-6.87451e-69
-4.01864
-122155
-1.51841e-26
-4292.05
-9.20425e-22
-3.21812e-33
-5.08277e-78
-9.39706e-21
9.64361e-78
-1.13842e-60
-5.2452e-50
-185.237
-92726.4
-3.63016e-14
-1.85532e-28
-2.59158e-12
-1.96363e-18
4.74225e-23
-8.16487e-65
-0.0372736
-4.66367e-17
-0.0873038
-2.01433e+07
-2.3755
-4.70539e-216
-5.43598e-05
-2.28424e-28
-5.47403e-24
-3.61199e-34
-2.21393e-06
-2.99336e-19
1.22395e-207
-186201
-189790
-1.2715e-06
-3.52847e-58
-1.26328e-11
-3.42484e-14
-0.446446
-5.51325e-13
-7.12231e-05
-17273.2
-7.72394e-24
-1.14655e-232
-3.30446e-51
-1.21157e-31
-6.33939e-16
-0.0724071
-1.0519e+07
-111604
6.33888e-54
-6.0153e-07
-1.18128
-8893.49
-6.93873e-83
-2.11351e-13
-2.20494e-248
8.27537e-07
-0.000937798
-1.95979e-62
-5.12035e-74
-861055
-5.44074e-25
-0.246237
-2.13502e-71
-3911.86
-1586.74
-6.26287e-09
-6.02114
-38.6991
-3.35567e-10
-5.18398e-11
-1.61224e-45
-1.2528e-38
-6.11835e-09
-5.75879e-15
-9.56643e-06
-7.02817e-08
-506.564
-7.29171e-29
-1.02015e-150
1.467e-201
-4.28382e+06
-0.630168
-4.6306e-10
-0.00118178
-0.114795
-1.78093e-123
-1.6964e-13
-1.59728e-26
-1.10021e-37
-45508.1
-3.81723e-32
-3.7605e-32
-1.14544e-19
-5.31123e-20
-1.42295e-117
-2.98914e-11
-1.00351e-24
0
-2.2159e-26
-5.33396e-05
-8.07265e-12
-1.80194e-84
-1.72143e-06
-2.33211e-09
-451.801
-6.71657e-28
-9.76506e-18
-1122.85
2.5465e-76
-8.18577e-44
-3199.92
-0.102037
-2.29878e-18
-2210.15
-3.39144e-25
-9.02725e-134
-341.6
-3.8104e-11
-1.22805e-09
-3.36169e-20
-4.31942e-09
-6.58524e-15
-0.0234875
-2.83678e-50
-1.63713e-38
-1.43715e-46
-484.891
-0.0664197
-2.13454e+07
-209231
-1.99908e-199
3.66841e-07
-2.2843e-58
-7.27723e-21
-5.41726e-27
-2.82348e-15
-1.37584e-36
-3.76734e-49
-1.56269e-14
-2.50532e-47
-1.37954e+07
-39142.2
-3.28903e-07
-9.20943e+06
-7575.51
-2.90198e-45
-1.36962e-19
-3.69508e-08
-3.29539e-19
-4.12629e-39
-883.146
-6.80944e-12
-949.967
-98776.6
-2.92787e-36
3.57369e-10
5.89586e-155
-457.626
-0.00374903
2.57776e-51
-2.57931e-20
-1.02801e-33
-0.00167495
-0.00653301
-6.1181e-16
-9.6974e-75
-0.00685709
-100.864