# vtk DataFile Version 2.0
track0
ASCII
DATASET POLYDATA
POINTS 11975 double
-0.0205 0.001 1e-05
-0.0202034 0.00100016 1e-05
-0.0199069 0.00100059 1e-05
-0.0196103 0.00100129 1e-05
-0.0193137 0.00100226 1e-05
-0.0190172 0.00100349 1e-05
-0.0187132 0.00100498 1e-05
-0.0184093 0.00100656 1e-05
-0.0181054 0.00100822 1e-05
-0.0178015 0.00100995 1e-05
-0.0174976 0.00101177 1e-05
-0.0172058 0.00101359 1e-05
-0.016914 0.00101542 1e-05
-0.0166222 0.00101727 1e-05
-0.0163305 0.00101915 1e-05
-0.0160387 0.00102105 1e-05
-0.015864 0.0010222 1e-05
-0.0156894 0.00102336 1e-05
-0.0155148 0.00102453 1e-05
-0.0153401 0.00102571 1e-05
-0.0151762 0.00102682 1e-05
-0.0150685 0.00102755 1e-05
-0.0149609 0.00102829 1e-05
-0.0148533 0.00102903 1e-05
-0.0147457 0.00102977 1e-05
-0.0146381 0.00103052 1e-05
-0.0143692 0.00103239 1e-05
-0.0141002 0.00103427 1e-05
-0.0138313 0.00103617 1e-05
-0.0135624 0.00103808 1e-05
-0.0132934 0.00104 1e-05
-0.0130353 0.00104185 1e-05
-0.0127771 0.00104371 1e-05
-0.0125189 0.00104557 1e-05
-0.0122607 0.00104743 1e-05
-0.0120025 0.00104929 1e-05
-0.0117547 0.00105107 1e-05
-0.0115068 0.00105286 1e-05
-0.0112589 0.00105464 1e-05
-0.0110111 0.00105641 1e-05
-0.0107632 0.00105818 1e-05
-0.0105252 0.00105987 1e-05
-0.0102873 0.00106155 1e-05
-0.0100493 0.00106323 1e-05
-0.00981133 0.0010649 1e-05
-0.00957337 0.00106656 1e-05
-0.00934491 0.00106815 1e-05
-0.00911645 0.00106973 1e-05
-0.00888799 0.0010713 1e-05
-0.00865954 0.00107286 1e-05
-0.00843108 0.00107441 1e-05
-0.00821175 0.00107589 1e-05
-0.00799242 0.00107736 1e-05
-0.00777309 0.00107882 1e-05
-0.00755376 0.00108027 1e-05
-0.00733443 0.00108171 1e-05
-0.00712387 0.00108309 1e-05
-0.0069133 0.00108445 1e-05
-0.00670273 0.0010858 1e-05
-0.00649216 0.00108715 1e-05
-0.0062816 0.00108848 1e-05
-0.00607944 0.00108975 1e-05
-0.00587729 0.00109101 1e-05
-0.00567514 0.00109226 1e-05
-0.00547298 0.00109349 1e-05
-0.00527083 0.00109472 1e-05
-0.00507675 0.00109588 1e-05
-0.00488267 0.00109704 1e-05
-0.0046886 0.00109818 1e-05
-0.00449452 0.00109931 1e-05
-0.00430044 0.00110043 1e-05
-0.00411412 0.00110149 1e-05
-0.0039278 0.00110254 1e-05
-0.00374147 0.00110358 1e-05
-0.00355515 0.00110461 1e-05
-0.00336883 0.00110562 1e-05
-0.00318995 0.00110657 1e-05
-0.00301107 0.00110752 1e-05
-0.00283219 0.00110844 1e-05
-0.00265331 0.00110936 1e-05
-0.00247443 0.00111025 1e-05
-0.0023027 0.00111109 1e-05
-0.00213097 0.00111192 1e-05
-0.00195924 0.00111273 1e-05
-0.0017875 0.00111352 1e-05
-0.00161577 0.00111429 1e-05
-0.0014509 0.00111501 1e-05
-0.00128603 0.00111571 1e-05
-0.00112116 0.00111638 1e-05
-0.000956289 0.00111703 1e-05
-0.000791418 0.00111765 1e-05
-0.000633135 0.00111822 1e-05
-0.000474851 0.00111877 1e-05
-0.000316567 0.00111929 1e-05
-0.000158283 0.00111979 1e-05
0 0.00112026 1e-05
0.000105677 0.00112055 1e-05
0.000211355 0.00112084 1e-05
0.000317032 0.00112112 1e-05
0.00042271 0.00112139 1e-05
0.000528387 0.00112165 1e-05
0.000634886 0.0011219 1e-05
0.000741385 0.00112215 1e-05
0.000847885 0.00112239 1e-05
0.000954384 0.00112263 1e-05
0.00106088 0.00112286 1e-05
0.00116821 0.00112308 1e-05
0.00127554 0.00112331 1e-05
0.00138286 0.00112352 1e-05
0.00149019 0.00112373 1e-05
0.00159752 0.00112394 1e-05
0.00170568 0.00112413 1e-05
0.00181384 0.00112433 1e-05
0.001922 0.00112452 1e-05
0.00203016 0.00112469 1e-05
0.00213833 0.00112487 1e-05
0.00224733 0.00112503 1e-05
0.00235633 0.00112519 1e-05
0.00246533 0.00112535 1e-05
0.00257434 0.00112549 1e-05
0.00268334 0.00112563 1e-05
0.00279319 0.00112576 1e-05
0.00290304 0.0011259 1e-05
0.00301289 0.00112602 1e-05
0.00312274 0.00112614 1e-05
0.00323259 0.00112625 1e-05
0.00334329 0.00112635 1e-05
0.003454 0.00112646 1e-05
0.0035647 0.00112656 1e-05
0.0036754 0.00112665 1e-05
0.00378611 0.00112674 1e-05
0.00389767 0.00112682 1e-05
0.00400924 0.0011269 1e-05
0.0041208 0.00112698 1e-05
0.00423237 0.00112705 1e-05
0.00434393 0.00112711 1e-05
0.00445636 0.00112717 1e-05
0.00456879 0.00112723 1e-05
0.00468123 0.00112728 1e-05
0.00479366 0.00112733 1e-05
0.00490609 0.00112738 1e-05
0.0050194 0.00112741 1e-05
0.0051327 0.00112745 1e-05
0.00524601 0.00112748 1e-05
0.00535931 0.00112751 1e-05
0.00547262 0.00112754 1e-05
0.00558681 0.00112755 1e-05
0.005701 0.00112757 1e-05
0.00581518 0.00112758 1e-05
0.00592937 0.00112759 1e-05
0.00604356 0.00112759 1e-05
0.00615863 0.00112759 1e-05
0.00627371 0.00112759 1e-05
0.00638878 0.00112758 1e-05
0.00650386 0.00112756 1e-05
0.00661893 0.00112755 1e-05
0.0067349 0.00112752 1e-05
0.00685087 0.00112749 1e-05
0.00696684 0.00112746 1e-05
0.00708281 0.00112742 1e-05
0.00719878 0.00112738 1e-05
0.00731565 0.00112733 1e-05
0.00743252 0.00112728 1e-05
0.00754939 0.00112722 1e-05
0.00766626 0.00112716 1e-05
0.00778313 0.00112709 1e-05
0.00790091 0.00112701 1e-05
0.00801869 0.00112693 1e-05
0.00813647 0.00112684 1e-05
0.00825425 0.00112674 1e-05
0.00837203 0.00112664 1e-05
0.00843538 0.00112658 1e-05
0.00849872 0.00112652 1e-05
0.00856206 0.00112646 1e-05
0.0086254 0.0011264 1e-05
0.00868713 0.00112633 1e-05
0.0087428 0.00112627 1e-05
0.00879848 0.00112621 1e-05
0.00885416 0.00112615 1e-05
0.00890983 0.00112608 1e-05
0.00896551 0.00112602 1e-05
0.00908513 0.00112587 1e-05
0.00920475 0.00112571 1e-05
0.00932437 0.00112555 1e-05
0.00944398 0.00112538 1e-05
0.0095636 0.0011252 1e-05
0.00968415 0.00112501 1e-05
0.0098047 0.00112481 1e-05
0.00992525 0.0011246 1e-05
0.0100458 0.00112439 1e-05
0.0101663 0.00112416 1e-05
0.0102878 0.00112391 1e-05
0.0104093 0.00112367 1e-05
0.0105308 0.00112341 1e-05
0.0106523 0.00112315 1e-05
0.0107738 0.00112287 1e-05
0.0108962 0.00112256 1e-05
0.0110186 0.00112227 1e-05
0.0111411 0.00112196 1e-05
0.0112635 0.00112164 1e-05
0.0113859 0.00112131 1e-05
0.0115093 0.00112094 1e-05
0.0116327 0.00112059 1e-05
0.0117561 0.00112022 1e-05
0.0118795 0.00111985 1e-05
0.0120028 0.00111946 1e-05
0.0121272 0.00111903 1e-05
0.0122515 0.00111861 1e-05
0.0123759 0.00111818 1e-05
0.0125002 0.00111775 1e-05
0.0126245 0.0011173 1e-05
0.0127498 0.0011168 1e-05
0.0128752 0.00111632 1e-05
0.0130005 0.00111583 1e-05
0.0131258 0.00111533 1e-05
0.0132511 0.00111482 1e-05
0.0133774 0.00111426 1e-05
0.0135036 0.00111372 1e-05
0.0136299 0.00111316 1e-05
0.0137562 0.0011126 1e-05
0.0138825 0.00111202 1e-05
0.0140098 0.00111139 1e-05
0.014137 0.00111078 1e-05
0.0142643 0.00111016 1e-05
0.0143915 0.00110953 1e-05
0.0145188 0.00110888 1e-05
0.0146471 0.00110818 1e-05
0.0147753 0.00110751 1e-05
0.0149036 0.00110682 1e-05
0.0150318 0.00110612 1e-05
0.0151601 0.00110541 1e-05
0.0152893 0.00110464 1e-05
0.0154186 0.00110389 1e-05
0.0155478 0.00110314 1e-05
0.0156771 0.00110237 1e-05
0.0158063 0.00110159 1e-05
0.0159366 0.00110076 1e-05
0.0160668 0.00109994 1e-05
0.0161971 0.00109912 1e-05
0.0163274 0.00109829 1e-05
0.0164576 0.00109744 1e-05
0.0165889 0.00109655 1e-05
0.0167201 0.00109566 1e-05
0.0168514 0.00109477 1e-05
0.0169827 0.00109388 1e-05
0.0171139 0.00109296 1e-05
0.0172462 0.00109201 1e-05
0.0173785 0.00109106 1e-05
0.0175108 0.00109011 1e-05
0.0176431 0.00108914 1e-05
0.0177754 0.00108816 1e-05
0.0179087 0.00108715 1e-05
0.018042 0.00108614 1e-05
0.0181753 0.00108513 1e-05
0.0183087 0.0010841 1e-05
0.018442 0.00108306 1e-05
0.0185763 0.001082 1e-05
0.0187107 0.00108093 1e-05
0.018845 0.00107985 1e-05
0.0189794 0.00107876 1e-05
0.0191137 0.00107766 1e-05
0.0192491 0.00107655 1e-05
0.0193845 0.00107542 1e-05
0.0195199 0.00107428 1e-05
0.0196553 0.00107314 1e-05
0.0197907 0.00107198 1e-05
0.0199272 0.00107081 1e-05
0.0200636 0.00106963 1e-05
0.0202001 0.00106844 1e-05
0.0203365 0.00106724 1e-05
0.020473 0.00106603 1e-05
0.0206105 0.00106481 1e-05
0.020748 0.00106358 1e-05
0.0208855 0.00106233 1e-05
0.021023 0.00106107 1e-05
0.0211606 0.00105982 1e-05
0.0212991 0.00105856 1e-05
0.0214377 0.00105728 1e-05
0.0215763 0.00105598 1e-05
0.0217149 0.00105467 1e-05
0.0218535 0.00105337 1e-05
0.0219931 0.00105206 1e-05
0.0221328 0.00105074 1e-05
0.0222724 0.00104939 1e-05
0.0224121 0.00104803 1e-05
0.0225517 0.00104669 1e-05
0.0226925 0.00104535 1e-05
0.0228332 0.00104398 1e-05
0.022974 0.00104258 1e-05
0.0231147 0.00104118 1e-05
0.0232555 0.00103979 1e-05
0.0233973 0.00103841 1e-05
0.0235391 0.001037 1e-05
0.023681 0.00103557 1e-05
0.0238228 0.00103412 1e-05
0.0239647 0.0010327 1e-05
0.0241076 0.00103129 1e-05
0.0242505 0.00102984 1e-05
0.0243935 0.00102836 1e-05
0.0245364 0.00102688 1e-05
0.0246794 0.00102542 1e-05
0.0248234 0.00102397 1e-05
0.0249675 0.00102249 1e-05
0.0251115 0.00102098 1e-05
0.0252556 0.00101947 1e-05
0.0253996 0.00101798 1e-05
0.0255448 0.0010165 1e-05
0.02569 0.00101499 1e-05
0.0258351 0.00101345 1e-05
0.0259803 0.00101191 1e-05
0.0261255 0.00101038 1e-05
0.0262718 0.00100888 1e-05
0.0264181 0.00100733 1e-05
0.0265644 0.00100577 1e-05
0.0267107 0.0010042 1e-05
0.026857 0.00100265 1e-05
0.0270044 0.00100111 1e-05
0.0271519 0.00099954 1e-05
0.0272993 0.000997952 1e-05
0.0274468 0.000996363 1e-05
0.0275942 0.000994784 1e-05
0.0277428 0.000993224 1e-05
0.0278914 0.000991624 1e-05
0.0280399 0.000990015 1e-05
0.0281885 0.000988406 1e-05
0.0283371 0.000986801 1e-05
0.0284869 0.000985217 1e-05
0.0286366 0.000983592 1e-05
0.0287863 0.000981963 1e-05
0.0289361 0.000980335 1e-05
0.0290858 0.000978707 1e-05
0.0292367 0.000977098 1e-05
0.0293876 0.000975452 1e-05
0.0295385 0.000973805 1e-05
0.0296894 0.000972159 1e-05
0.0298403 0.000970512 1e-05
0.0299924 0.000968881 1e-05
0.0301445 0.000967218 1e-05
0.0302966 0.000965554 1e-05
0.0304486 0.00096389 1e-05
0.0306007 0.000962226 1e-05
0.030754 0.000960573 1e-05
0.0309072 0.000958892 1e-05
0.0310605 0.000957211 1e-05
0.0312138 0.000955531 1e-05
0.031367 0.000953849 1e-05
0.0315215 0.000952173 1e-05
0.0316759 0.000950475 1e-05
0.0318304 0.000948777 1e-05
0.0319848 0.000947079 1e-05
0.0321393 0.00094538 1e-05
0.0322949 0.000943679 1e-05
0.0324506 0.000941964 1e-05
0.0326062 0.000940247 1e-05
0.0327619 0.00093853 1e-05
0.0329175 0.000936811 1e-05
0.0330744 0.000935086 1e-05
0.0332313 0.00093335 1e-05
0.0333881 0.000931613 1e-05
[...]
POINT_DATA 11975
 FIELD attributes 2
p 1 11975 float
-4.85331 -4.88722 -4.92291 -4.95884 -4.995 -5.04633 -5.11875 -5.18451 -5.25027 -5.31603 -5.38113 -5.42561 -5.46731 -5.50902 -5.55071 -5.59136 -5.60681 -5.62241 -5.63801 -5.65362 -5.66826 -5.6779 -5.68755 -5.69719 -5.70683 -5.71637 -5.74089 -5.7655 -5.7901 -5.81471 -5.83946 -5.86453 -5.88964 -5.91475 -5.93987 -5.96468 -5.98731 -6.00971 -6.03211 -6.05451 -6.07629 -6.0959 -6.11536 -6.13482 -6.15427 -6.17332 -6.191 -6.2087 -6.2264 -6.2441 -6.26164 -6.27817 -6.29483 -6.31149 -6.32815 -6.34475 -6.36045 -6.37636 -6.39226 -6.40817 -6.42408 -6.43915 -6.45454 -6.46994 -6.48533 -6.50078 -6.51546 -6.53059 -6.54571 -6.56084 -6.57604 -6.59052 -6.60559 -6.62066 -6.63573 -6.65076 -6.66513 -6.68026 -6.69539 -6.71051 -6.72535 -6.73952 -6.75418 -6.76889 -6.7835 -6.79723 -6.80998 -6.82285 -6.83573 -6.84838 -6.85963 -6.8692 -6.87601 -6.88228 -6.888 -6.8912 -6.8933 -6.89305 -6.8923 -6.89145 -6.88998 -6.88932 -6.88778 -6.88612 -6.88449 -6.88318 -6.88277 -6.88347 -6.88422 -6.88498 -6.88697 -6.88876 -6.8911 -6.89345 -6.89579 -6.89865 -6.90138 -6.90329 -6.9052 -6.90711 -6.90866 -6.91119 -6.9125 -6.91381 -6.91512 -6.91563 -6.91805 -6.91932 -6.9206 -6.92188 -6.92216 -6.92447 -6.92582 -6.92717 -6.92852 -6.92891 -6.93086 -6.93214 -6.93343 -6.93471 -6.9353 -6.93676 -6.93796 -6.93915 -6.94035 -6.94123 -6.94228 -6.94344 -6.94459 -6.94574 -6.9469 -6.94769 -6.9488 -6.9499 -6.95101 -6.95233 -6.95299 -6.95403 -6.95507 -6.95612 -6.95744 -6.95806 -6.95902 -6.95997 -6.96093 -6.96211 -6.96274 -6.96359 -6.96443 -6.96528 -6.96621 -6.96651 -6.96689 -6.96726 -6.96764 -6.968 -6.96833 -6.96867 -6.969 -6.96933 -6.96957 -6.97017 -6.9707 -6.97123 -6.97176 -6.97217 -6.97249 -6.9728 -6.9731 -6.97341 -6.97384 -6.97354 -6.97358 -6.97361 -6.97364 -6.97432 -6.97309 -6.97281 -6.97253 -6.97225 -6.97337 -6.97096 -6.97033 -6.96971 -6.96908 -6.97081 -6.96703 -6.96604 -6.96505 -6.96406 -6.96652 -6.96127 -6.95991 -6.95856 -6.9572 -6.96044 -6.95371 -6.952 -6.95029 -6.94859 -6.95263 -6.94449 -6.94247 -6.94045 -6.93843 -6.94323 -6.93403 -6.93157 -6.92929 -6.92772 -6.93254 -6.92317 -6.91965 -6.91718 -6.91628 -6.92086 -6.91154 -6.90704 -6.90445 -6.90424 -6.90854 -6.89948 -6.89416 -6.89153 -6.89203 -6.89601 -6.8874 -6.88148 -6.8789 -6.88008 -6.88373 -6.87571 -6.8694 -6.86695 -6.86877 -6.87212 -6.86479 -6.8583 -6.85607 -6.85848 -6.86158 -6.85503 -6.84857 -6.84668 -6.8496 -6.85253 -6.84683 -6.84112 -6.83969 -6.84252 -6.84535 -6.84055 -6.83575 -6.83475 -6.83757 -6.8404 -6.83653 -6.83267 -6.83218 -6.83507 -6.83797 -6.83507 -6.83217 -6.83223 -6.83528 -6.83833 -6.8364 -6.83448 -6.83514 -6.83841 -6.84168 -6.84073 -6.83978 -6.84107 -6.84462 -6.84818 -6.84819 -6.84822 -6.85022 -6.85402 -6.85791 -6.85886 -6.86007 -6.86272 -6.86666 -6.87092 -6.87277 -6.87507 -6.87836 -6.88254 -6.8872 -6.88994 -6.89322 -6.89716 -6.90164 -6.90672 -6.9103 -6.91448 -6.91903 -6.92389 -6.92937 -6.93376 -6.93872 -6.94388 -6.94915 -6.95505 -6.9602 -6.96587 -6.97161 -6.97735 -6.98364 -6.98952 -6.99579 -7.00206 -7.00833 -7.01492 -7.02146 -7.02822 -7.03498 -7.04173 -7.04865 -7.05574 -7.06295 -7.07015 -7.07735 -7.08462 -7.09218 -7.09978 -7.10738 -7.11498 -7.1226 -7.13053 -7.13848 -7.14643 -7.15438 -7.16232 -7.17056 -7.1788 -7.18704 -7.19528 -7.20351 -7.20708 -7.21065 -7.21421 -7.21778 -7.22133 -7.22624 -7.23116 -7.23608 -7.241 -7.24596 -7.2546 -7.26327 -7.27194 -7.28061 -7.28939 -7.29813 -7.30694 -7.31575 -7.32456 -7.33352 -7.34232 -7.35122 -7.36012 -7.36901 -7.37808 -7.38693 -7.39586 -7.40479 -7.41372 -7.42283 -7.43168 -7.44059 -7.4495 -7.45842 -7.4675 -7.47631 -7.48515 -7.494 -7.50284 -7.51182 -7.52056 -7.52928 -7.538 -7.54674 -7.55554 -7.56416 -7.57274 -7.5813 -7.58987 -7.59845 -7.60691 -7.61531 -7.62367 -7.63202 -7.64036 -7.64861 -7.65681 -7.66493 -7.67301 -7.68107 -7.68907 -7.69703 -7.70486 -7.71262 -7.72036 -7.72807 -7.73577 -7.74329 -7.75068 -7.75807 -7.76545 -7.77284 -7.78002 -7.78703 -7.79405 -7.80108 -7.80812 -7.81494 -7.82156 -7.82817 -7.83483 -7.84149 -7.84793 -7.85413 -7.86033 -7.86659 -7.87285 -7.87888 -7.88465 -7.89042 -7.89626 -7.9021 -7.90771 -7.91302 -7.91833 -7.92374 -7.92914 -7.93429 -7.93914 -7.94398 -7.94892 -7.95381 -7.95847 -7.96289 -7.96723 -7.97167 -7.97601 -7.98016 -7.98413 -7.98793 -7.99184 -7.99558 -7.99919 -8.00267 -8.00591 -8.00927 -8.01237 -8.0154 -8.01839 -8.02104 -8.02381 -8.02624 -8.02867 -8.03109 -8.03316 -8.03524 -8.03701 -8.03879 -8.04057 -8.04208 -8.0434 -8.04449 -8.04559 -8.04669 -8.0476 -8.04814 -8.04851 -8.0489 -8.04928 -8.04958 -8.04939 -8.04912 -8.04885 -8.04859 -8.04834 -8.04826 -8.04818 -8.04811 -8.04803 -8.04793 -8.0469 -8.04585 -8.04481 -8.04376 -8.04258 -8.04093 -8.03913 -8.03733 -8.03553 -8.03347 -8.03119 -8.02862 -8.02605 -8.02348 -8.02051 -8.01758 -8.0142 -8.01082 -8.00743 -8.00352 -7.99982 -7.9957 -7.99149 -7.98711 -7.98235 -7.97779 -7.97297 -7.96791 -7.96251 -7.95688 -7.95146 -7.94593 -7.94001 -7.93358 -7.92708 -7.92079 -7.91451 -7.90769 -7.90031 -7.89293 -7.88578 -7.87864 -7.87094 -7.86267 -7.85441 -7.84638 -7.83836 -7.82975 -7.82057 -7.81139 -7.80244 -7.79348 -7.78388 -7.77379 -7.76364 -7.75373 -7.74358 -7.73298 -7.7221 -7.71095 -7.70005 -7.68868 -7.67708 -7.66541 -7.65326 -7.64138 -7.62879 -7.61621 -7.60363 -7.59063 -7.57754 -7.56397 -7.55041 -7.53686 -7.5231 -7.50999 -7.49666 -7.48333 -7.47 -7.45748 -7.45613 -7.45479 -7.45345 -7.4521 -7.45074 -7.43536 -7.41997 -7.40458 -7.3892 -7.37355 -7.35738 -7.34095 -7.32453 -7.30812 -7.29113 -7.2741 -7.2566 -7.23909 -7.22144 -7.20321 -7.1851 -7.16674 -7.14816 -7.12913 -7.10981 -7.09065 -7.07146 -7.0518 -7.03143 -7.01106 -6.99085 -6.97065 -6.94986 -6.92846 -6.90705 -6.88583 -6.86461 -6.84274 -6.82035 -6.79796 -6.77575 -6.75328 -6.73036 -6.70722 -6.68381 -6.66058 -6.6367 -6.61269 -6.58869 -6.56423 -6.53964 -6.51448 -6.48933 -6.46418 -6.43888 -6.42649 -6.41391 -6.40133 -6.38876 -6.37653 -6.36279 -6.34906 -6.33533 -6.3216 -6.30774 -6.28052 -6.25323 -6.22594 -6.19866 -6.17098 -6.14284 -6.11449 -6.08615 -6.05769 -6.02882 -5.99966 -5.9704 -5.94104 -5.91131 -5.88142 -5.85128 -5.82115 -5.79076 -5.76002 -5.72928 -5.6983 -5.66732 -5.63594 -5.60423 -5.57252 -5.54057 -5.50846 -5.47591 -5.44317 -5.41027 -5.37715 -5.34353 -5.30981 -5.27609 -5.24213 -5.20772 -5.17294 -5.13816 -5.10339 -5.06859 -5.06301 -5.05738 -5.05174 -5.04611 -5.04052 -5.01044 -4.98037 -4.95029 -4.92022 -4.88952 -4.85336 -4.81671 -4.78007 -4.7434 -4.70543 -4.66863 -4.6313 -4.59372 -4.55539 -4.51652 -4.47878 -4.44104 -4.40241 -4.36267 -4.32292 -4.28427 -4.24562 -4.20588 -4.16528 -4.12466 -4.08511 -4.0451 -4.00421 -3.9631 -3.92162 -3.88117 -3.83955 -3.79785 -3.75616 -3.71411 -3.6842 -3.65379 -3.62338 -3.59297 -3.5635 -3.55131 -3.53912 -3.52693 -3.51473 -3.50246 -3.45939 -3.41628 -3.37318 -3.33007 -3.28662 -3.24295 -3.19913 -3.1553 -3.11132 -3.06711 -3.02273 -2.97833 -2.93381 -2.88896 -2.8441 -2.79904 -2.75398 -2.70869 -2.66321 -2.61773 -2.57203 -2.52623 -2.48025 -2.43424 -2.38816 -2.34184 -2.29527 -2.2487 -2.20214 -2.15553 -2.13364 -2.11167 -2.08971 -2.06775 -2.04621 -2.02097 -1.99574 -1.97051 -1.94527 -1.92004 -1.87236 -1.82472 -1.77709 -1.72946 -1.68183 -1.63363 -1.58548 -1.53736 -1.48927 -1.44117 -1.39255 -1.34394 -1.29539 -1.2469 -1.1984 -1.14941 -1.10042 -1.05146 -1.00256 -0.953681 -0.904322 -0.854995 -0.805677 -0.756363 -0.707102 -0.679705 -0.652333 -0.624962 -0.597592 -0.570857 -0.548464 -0.526071 -0.503679 -0.481288 -0.458903 -0.408914 -0.358994 -0.309077 -0.259167 -0.209289 -0.158965 -0.108719 -0.0585569 -0.00845956 0.041643 0.0921889 0.142731 0.193148 0.243416 0.293703 0.344433 0.395115 0.445716 0.496267 0.5467 0.597553 0.648278 0.698999 0.749715 0.800439 0.803393 0.80634 0.809286 0.812233 0.815172 0.863078 0.910982 0.958881 1.00678 1.0546 1.1057 1.15662 1.20752 1.25832 1.30909 1.36021 1.41133 1.46224 1.51297 1.56372 1.61483 1.66588 1.71678 1.76758 1.81828 1.86932 1.92014 1.97096 2.02177 2.07258 2.07603 2.07947 2.08291 2.08635 2.08978 2.13713 2.18447 2.23181 2.27915 2.32632 2.3772 2.42789 2.47852 2.52896 2.57934 2.63005 2.68075 2.73117 2.7813 2.83145 2.88195 2.93227 2.98241 3.03255 3.08247 3.11488 3.14706 3.17925 3.21143 3.24271 3.26063 3.27856 3.29649 3.31441 3.33219 3.38209 3.43182 3.48155 3.53114 3.58039 3.63017 3.67993 3.72924 3.77812 3.82703 3.87647 3.9258 3.97465 4.02336 4.07188 4.1132 4.154 4.19479 4.23558 4.27494 4.28291 4.29088 4.29885 4.30682 4.31468 4.36298 4.41116 4.45934 4.5074 4.5549 4.60305 4.65117 4.69875 4.74573 4.79274 4.84038 4.88787 4.93476 4.98152 5.02802 5.06155 5.09456 5.12755 5.16053 5.19263 5.20622 5.21981 5.2334 5.24698 5.26048 5.30653 5.35247 5.39841 5.44426 5.48998 5.53538 5.58078 5.62611 5.67141 5.71673 5.76147 5.80629 5.85118 5.89608 5.94102 5.95544 5.96992 5.9844 5.99888 6.01323 6.04331 6.07338 6.10345 6.13354 6.16385 6.20777 6.25176 6.29578 6.34005 6.38438 6.4277 6.47102 6.51458 6.55818 6.60185 6.63408 6.66643 6.69879 6.73116 6.76313 6.7738 6.78447 6.79514 6.8058 6.81638 6.85898 6.90147 6.94395 6.98626 7.02837 7.07038 7.11239 7.1541 7.1955 7.23692 7.27663 7.31596 7.35519 7.39442 7.4334 7.43509 7.43678 7.43847 7.44015 7.44182 7.48221 7.52257 7.56294 7.60317 7.64303 7.6828 7.72256 7.76195 7.80097 7.83999 7.8789 7.91745 7.95586 7.99426 8.03264 8.03459 8.03652 8.03844 8.04037 8.04229 8.07822 8.11414 8.15007 8.18589 8.22135 8.25856 8.29578 8.33259 8.36903 8.40545 8.4417 8.47759 8.51327 8.54895 8.58454 8.58812 8.59166 8.5952 8.59873 8.60227 8.63376 8.66525 8.69674 8.72814 8.75921 8.79359 8.82797 8.86151 8.89426 8.92697 8.95945 8.99252 9.0261 9.05969 9.09347 9.10088 9.10688 9.11253 9.11818 9.12392 9.14709 9.17026 9.19341 9.2155 9.23272 9.25437 9.27832 9.30934 9.35422 9.39903 9.44273 9.47803 9.50072 9.52345 9.54465 9.54533 9.54618 9.54724 9.5483 9.54936 9.56663 9.5839 9.60119 9.62254 9.64714 9.67303 9.69888 9.72356 9.74817 9.77219 9.77855 9.78466 9.79044 9.79623 9.80218 9.81952 9.83683 9.85414 9.87066 9.88653 9.9079 9.92924 9.9496 9.96878 9.98787 9.99704 10.0058 10.014 10.0222 10.031 10.0403 10.0495 10.0588 10.0676 10.0759 10.0918 10.1076 10.1217 10.134 10.1463 10.1558 10.1641 10.1712 10.1784 10.1867 10.1882 10.1898 10.1913 10.1927 10.1938 10.2 10.2053 10.2105 10.2137 10.2158 10.2164 10.2168 10.2138 10.2099 10.2048 10.2014 10.1968 10.1915 10.1861 10.1801 10.1759 10.1717 10.1674 10.1626 10.1564 10.1418 10.1254 10.108 10.0866 10.0646 10.0402 10.0152 9.98543 9.9544 9.92143 9.89749 9.87028 9.84247 9.81463 9.78086 9.76911 9.75736 9.74559 9.73372 9.72025 9.67083 9.619 9.567 9.51259 9.45402 9.39179 9.32944 9.26108 9.18705 9.11287 9.03455 8.9538 8.86695 8.7784 8.68568 8.591 8.48962 8.38819 8.28671 8.16501 8.16149 8.15767 8.15385 8.15003 8.14617 8.02517 7.90401 7.78268 7.66121 7.53027 7.38684 7.23924 7.09121 6.94039 6.78639 6.62622 6.46598 6.28045 6.07129 5.86192 5.64433 5.42662 5.2256 5.04087 4.85605 4.66404 4.42981 4.12938 3.80386 3.42226 3.02562 2.80614 2.59217 2.37937 2.25525 2.11647 1.76993 1.42217 1.07324 0.869976 0.723691 0.578015 0.432941 0.288462 0