# vtk DataFile Version 2.0
track0
ASCII
DATASET POLYDATA
POINTS 11975 double
-0.0205 0.001 1e-05
-0.0202034 0.00100016 1e-05
-0.0199069 0.00100059 1e-05
-0.0196103 0.00100129 1e-05
-0.0193137 0.00100226 1e-05
-0.0190172 0.00100349 1e-05
-0.0187132 0.00100498 1e-05
-0.0184093 0.00100656 1e-05
-0.0181054 0.00100822 1e-05
-0.0178015 0.00100995 1e-05
-0.0174976 0.00101177 1e-05
-0.0172058 0.00101359 1e-05
-0.016914 0.00101542 1e-05
-0.0166222 0.00101727 1e-05
-0.0163305 0.00101915 1e-05
-0.0160387 0.00102105 1e-05
-0.015864 0.0010222 1e-05
-0.0156894 0.00102336 1e-05
-0.0155148 0.00102453 1e-05
-0.0153401 0.00102571 1e-05
-0.0151762 0.00102682 1e-05
-0.0150685 0.00102755 1e-05
-0.0149609 0.00102829 1e-05
-0.0148533 0.00102903 1e-05
-0.0147457 0.00102977 1e-05
-0.0146381 0.00103052 1e-05
-0.0143692 0.00103239 1e-05
-0.0141002 0.00103427 1e-05
-0.0138313 0.00103617 1e-05
-0.0135624 0.00103808 1e-05
-0.0132934 0.00104 1e-05
-0.0130353 0.00104185 1e-05
-0.0127771 0.00104371 1e-05
-0.0125189 0.00104557 1e-05
-0.0122607 0.00104743 1e-05
-0.0120025 0.00104929 1e-05
-0.0117547 0.00105107 1e-05
-0.0115068 0.00105286 1e-05
-0.0112589 0.00105464 1e-05
-0.0110111 0.00105641 1e-05
-0.0107632 0.00105818 1e-05
-0.0105252 0.00105987 1e-05
-0.0102873 0.00106155 1e-05
-0.0100493 0.00106323 1e-05
-0.00981133 0.0010649 1e-05
-0.00957337 0.00106656 1e-05
-0.00934491 0.00106815 1e-05
-0.00911645 0.00106973 1e-05
-0.00888799 0.0010713 1e-05
-0.00865954 0.00107286 1e-05
-0.00843108 0.00107441 1e-05
-0.00821175 0.00107589 1e-05
-0.00799242 0.00107736 1e-05
-0.00777309 0.00107882 1e-05
-0.00755376 0.00108027 1e-05
-0.00733443 0.00108171 1e-05
-0.00712387 0.00108309 1e-05
-0.0069133 0.00108445 1e-05
-0.00670273 0.0010858 1e-05
-0.00649216 0.00108715 1e-05
-0.0062816 0.00108848 1e-05
-0.00607944 0.00108975 1e-05
-0.00587729 0.00109101 1e-05
-0.00567514 0.00109226 1e-05
-0.00547298 0.00109349 1e-05
-0.00527083 0.00109472 1e-05
-0.00507675 0.00109588 1e-05
-0.00488267 0.00109704 1e-05
-0.0046886 0.00109818 1e-05
-0.00449452 0.00109931 1e-05
-0.00430044 0.00110043 1e-05
-0.00411412 0.00110149 1e-05
-0.0039278 0.00110254 1e-05
-0.00374147 0.00110358 1e-05
-0.00355515 0.00110461 1e-05
-0.00336883 0.00110562 1e-05
-0.00318995 0.00110657 1e-05
-0.00301107 0.00110752 1e-05
-0.00283219 0.00110844 1e-05
-0.00265331 0.00110936 1e-05
-0.00247443 0.00111025 1e-05
-0.0023027 0.00111109 1e-05
-0.00213097 0.00111192 1e-05
-0.00195924 0.00111273 1e-05
-0.0017875 0.00111352 1e-05
-0.00161577 0.00111429 1e-05
-0.0014509 0.00111501 1e-05
-0.00128603 0.00111571 1e-05
-0.00112116 0.00111638 1e-05
-0.000956289 0.00111703 1e-05
-0.000791418 0.00111765 1e-05
-0.000633135 0.00111822 1e-05
-0.000474851 0.00111877 1e-05
-0.000316567 0.00111929 1e-05
-0.000158283 0.00111979 1e-05
0 0.00112026 1e-05
0.000105677 0.00112055 1e-05
0.000211355 0.00112084 1e-05
0.000317032 0.00112112 1e-05
0.00042271 0.00112139 1e-05
0.000528387 0.00112165 1e-05
0.000634886 0.0011219 1e-05
0.000741385 0.00112215 1e-05
0.000847885 0.00112239 1e-05
0.000954384 0.00112263 1e-05
0.00106088 0.00112286 1e-05
0.00116821 0.00112308 1e-05
0.00127554 0.00112331 1e-05
0.00138286 0.00112352 1e-05
0.00149019 0.00112373 1e-05
0.00159752 0.00112394 1e-05
0.00170568 0.00112413 1e-05
0.00181384 0.00112433 1e-05
0.001922 0.00112452 1e-05
0.00203016 0.00112469 1e-05
0.00213833 0.00112487 1e-05
0.00224733 0.00112503 1e-05
0.00235633 0.00112519 1e-05
0.00246533 0.00112535 1e-05
0.00257434 0.00112549 1e-05
0.00268334 0.00112563 1e-05
0.00279319 0.00112576 1e-05
0.00290304 0.0011259 1e-05
0.00301289 0.00112602 1e-05
0.00312274 0.00112614 1e-05
0.00323259 0.00112625 1e-05
0.00334329 0.00112635 1e-05
0.003454 0.00112646 1e-05
0.0035647 0.00112656 1e-05
0.0036754 0.00112665 1e-05
0.00378611 0.00112674 1e-05
0.00389767 0.00112682 1e-05
0.00400924 0.0011269 1e-05
0.0041208 0.00112698 1e-05
0.00423237 0.00112705 1e-05
0.00434393 0.00112711 1e-05
0.00445636 0.00112717 1e-05
0.00456879 0.00112723 1e-05
0.00468123 0.00112728 1e-05
0.00479366 0.00112733 1e-05
0.00490609 0.00112738 1e-05
0.0050194 0.00112741 1e-05
0.0051327 0.00112745 1e-05
0.00524601 0.00112748 1e-05
0.00535931 0.00112751 1e-05
0.00547262 0.00112754 1e-05
0.00558681 0.00112755 1e-05
0.005701 0.00112757 1e-05
0.00581518 0.00112758 1e-05
0.00592937 0.00112759 1e-05
0.00604356 0.00112759 1e-05
0.00615863 0.00112759 1e-05
0.00627371 0.00112759 1e-05
0.00638878 0.00112758 1e-05
0.00650386 0.00112756 1e-05
0.00661893 0.00112755 1e-05
0.0067349 0.00112752 1e-05
0.00685087 0.00112749 1e-05
0.00696684 0.00112746 1e-05
0.00708281 0.00112742 1e-05
0.00719878 0.00112738 1e-05
0.00731565 0.00112733 1e-05
0.00743252 0.00112728 1e-05
0.00754939 0.00112722 1e-05
0.00766626 0.00112716 1e-05
0.00778313 0.00112709 1e-05
0.00790091 0.00112701 1e-05
0.00801869 0.00112693 1e-05
0.00813647 0.00112684 1e-05
0.00825425 0.00112674 1e-05
0.00837203 0.00112664 1e-05
0.00843538 0.00112658 1e-05
0.00849872 0.00112652 1e-05
0.00856206 0.00112646 1e-05
0.0086254 0.0011264 1e-05
0.00868713 0.00112633 1e-05
0.0087428 0.00112627 1e-05
0.00879848 0.00112621 1e-05
0.00885416 0.00112615 1e-05
0.00890983 0.00112608 1e-05
0.00896551 0.00112602 1e-05
0.00908513 0.00112587 1e-05
0.00920475 0.00112571 1e-05
0.00932437 0.00112555 1e-05
0.00944398 0.00112538 1e-05
0.0095636 0.0011252 1e-05
0.00968415 0.00112501 1e-05
0.0098047 0.00112481 1e-05
0.00992525 0.0011246 1e-05
0.0100458 0.00112439 1e-05
0.0101663 0.00112416 1e-05
0.0102878 0.00112391 1e-05
0.0104093 0.00112367 1e-05
0.0105308 0.00112341 1e-05
0.0106523 0.00112315 1e-05
0.0107738 0.00112287 1e-05
0.0108962 0.00112256 1e-05
0.0110186 0.00112227 1e-05
0.0111411 0.00112196 1e-05
0.0112635 0.00112164 1e-05
0.0113859 0.00112131 1e-05
0.0115093 0.00112094 1e-05
0.0116327 0.00112059 1e-05
0.0117561 0.00112022 1e-05
0.0118795 0.00111985 1e-05
0.0120028 0.00111946 1e-05
0.0121272 0.00111903 1e-05
0.0122515 0.00111861 1e-05
0.0123759 0.00111818 1e-05
0.0125002 0.00111775 1e-05
0.0126245 0.0011173 1e-05
0.0127498 0.0011168 1e-05
0.0128752 0.00111632 1e-05
0.0130005 0.00111583 1e-05
0.0131258 0.00111533 1e-05
0.0132511 0.00111482 1e-05
0.0133774 0.00111426 1e-05
0.0135036 0.00111372 1e-05
0.0136299 0.00111316 1e-05
0.0137562 0.0011126 1e-05
0.0138825 0.00111202 1e-05
0.0140098 0.00111139 1e-05
0.014137 0.00111078 1e-05
0.0142643 0.00111016 1e-05
0.0143915 0.00110953 1e-05
0.0145188 0.00110888 1e-05
0.0146471 0.00110818 1e-05
0.0147753 0.00110751 1e-05
0.0149036 0.00110682 1e-05
0.0150318 0.00110612 1e-05
0.0151601 0.00110541 1e-05
0.0152893 0.00110464 1e-05
0.0154186 0.00110389 1e-05
0.0155478 0.00110314 1e-05
0.0156771 0.00110237 1e-05
0.0158063 0.00110159 1e-05
0.0159366 0.00110076 1e-05
0.0160668 0.00109994 1e-05
0.0161971 0.00109912 1e-05
0.0163274 0.00109829 1e-05
0.0164576 0.00109744 1e-05
0.0165889 0.00109655 1e-05
0.0167201 0.00109566 1e-05
0.0168514 0.00109477 1e-05
0.0169827 0.00109388 1e-05
0.0171139 0.00109296 1e-05
0.0172462 0.00109201 1e-05
0.0173785 0.00109106 1e-05
0.0175108 0.00109011 1e-05
0.0176431 0.00108914 1e-05
0.0177754 0.00108816 1e-05
0.0179087 0.00108715 1e-05
0.018042 0.00108614 1e-05
0.0181753 0.00108513 1e-05
0.0183087 0.0010841 1e-05
0.018442 0.00108306 1e-05
0.0185763 0.001082 1e-05
0.0187107 0.00108093 1e-05
0.018845 0.00107985 1e-05
0.0189794 0.00107876 1e-05
0.0191137 0.00107766 1e-05
0.0192491 0.00107655 1e-05
0.0193845 0.00107542 1e-05
0.0195199 0.00107428 1e-05
0.0196553 0.00107314 1e-05
0.0197907 0.00107198 1e-05
0.0199272 0.00107081 1e-05
0.0200636 0.00106963 1e-05
0.0202001 0.00106844 1e-05
0.0203365 0.00106724 1e-05
0.020473 0.00106603 1e-05
0.0206105 0.00106481 1e-05
0.020748 0.00106358 1e-05
0.0208855 0.00106233 1e-05
0.021023 0.00106107 1e-05
0.0211606 0.00105982 1e-05
0.0212991 0.00105856 1e-05
0.0214377 0.00105728 1e-05
0.0215763 0.00105598 1e-05
0.0217149 0.00105467 1e-05
0.0218535 0.00105337 1e-05
0.0219931 0.00105206 1e-05
0.0221328 0.00105074 1e-05
0.0222724 0.00104939 1e-05
0.0224121 0.00104803 1e-05
0.0225517 0.00104669 1e-05
0.0226925 0.00104535 1e-05
0.0228332 0.00104398 1e-05
0.022974 0.00104258 1e-05
0.0231147 0.00104118 1e-05
0.0232555 0.00103979 1e-05
0.0233973 0.00103841 1e-05
0.0235391 0.001037 1e-05
0.023681 0.00103557 1e-05
0.0238228 0.00103412 1e-05
0.0239647 0.0010327 1e-05
0.0241076 0.00103129 1e-05
0.0242505 0.00102984 1e-05
0.0243935 0.00102836 1e-05
0.0245364 0.00102688 1e-05
0.0246794 0.00102542 1e-05
0.0248234 0.00102397 1e-05
0.0249675 0.00102249 1e-05
0.0251115 0.00102098 1e-05
0.0252556 0.00101947 1e-05
0.0253996 0.00101798 1e-05
0.0255448 0.0010165 1e-05
0.02569 0.00101499 1e-05
0.0258351 0.00101345 1e-05
0.0259803 0.00101191 1e-05
0.0261255 0.00101038 1e-05
0.0262718 0.00100888 1e-05
0.0264181 0.00100733 1e-05
0.0265644 0.00100577 1e-05
0.0267107 0.0010042 1e-05
0.026857 0.00100265 1e-05
0.0270044 0.00100111 1e-05
0.0271519 0.00099954 1e-05
0.0272993 0.000997952 1e-05
0.0274468 0.000996363 1e-05
0.0275942 0.000994784 1e-05
0.0277428 0.000993224 1e-05
0.0278914 0.000991624 1e-05
0.0280399 0.000990015 1e-05
0.0281885 0.000988406 1e-05
0.0283371 0.000986801 1e-05
0.0284869 0.000985217 1e-05
0.0286366 0.000983592 1e-05
0.0287863 0.000981963 1e-05
0.0289361 0.000980335 1e-05
0.0290858 0.000978707 1e-05
0.0292367 0.000977098 1e-05
0.0293876 0.000975452 1e-05
0.0295385 0.000973805 1e-05
0.0296894 0.000972159 1e-05
0.0298403 0.000970512 1e-05
0.0299924 0.000968881 1e-05
0.0301445 0.000967218 1e-05
0.0302966 0.000965554 1e-05
0.0304486 0.00096389 1e-05
0.0306007 0.000962226 1e-05
0.030754 0.000960573 1e-05
0.0309072 0.000958892 1e-05
0.0310605 0.000957211 1e-05
0.0312138 0.000955531 1e-05
0.031367 0.000953849 1e-05
0.0315215 0.000952173 1e-05
0.0316759 0.000950475 1e-05
0.0318304 0.000948777 1e-05
0.0319848 0.000947079 1e-05
0.0321393 0.00094538 1e-05
0.0322949 0.000943679 1e-05
0.0324506 0.000941964 1e-05
0.0326062 0.000940247 1e-05
0.0327619 0.00093853 1e-05
0.0329175 0.000936811 1e-05
0.0330744 0.000935086 1e-05
0.0332313 0.00093335 1e-05
0.0333881 0.000931613 1e-05
[...]
POINT_DATA 11975
 FIELD attributes 1
U 3 11975 float
10.0026 	0.00527654 	0 10.0097 	0.0146637 	0 10.0167 	0.0236703 	0 10.0237 	0.0326513 	0 10.0307 	0.0416067 	0 10.0411 	0.0492204 	0 10.0478 	0.0521993 	0 10.0561 	0.0548842 	0 10.0643 	0.057565 	0 10.0725 	0.0602415 	0 10.0833 	0.0627527 	0 10.0881 	0.0632483 	0 10.0946 	0.0641209 	0 10.1011 	0.064993 	0 10.1076 	0.0658647 	0 10.115 	0.0668213 	0 10.1173 	0.0671991 	0 10.1203 	0.0676771 	0 10.1234 	0.068155 	0 10.1264 	0.0686328 	0 10.1293 	0.0690813 	0 10.1312 	0.0693771 	0 10.1331 	0.0696729 	0 10.1349 	0.0699687 	0 10.1368 	0.0702645 	0 10.1389 	0.0705558 	0 10.1428 	0.0710538 	0 10.147 	0.0715428 	0 10.1511 	0.0720317 	0 10.1553 	0.0725204 	0 10.1601 	0.072973 	0 10.1628 	0.0730793 	0 10.1662 	0.073167 	0 10.1697 	0.0732547 	0 10.1732 	0.0733423 	0 10.1779 	0.0734026 	0 10.1793 	0.0732224 	0 10.182 	0.0730377 	0 10.1847 	0.0728532 	0 10.1873 	0.0726687 	0 10.1918 	0.0724985 	0 10.1921 	0.0721625 	0 10.194 	0.0718353 	0 10.1959 	0.0715083 	0 10.1978 	0.0711813 	0 10.2019 	0.0709005 	0 10.2015 	0.0704836 	0 10.2028 	0.0700789 	0 10.2041 	0.0696743 	0 10.2054 	0.0692698 	0 10.2089 	0.0689231 	0 10.2084 	0.0684568 	0 10.2092 	0.067997 	0 10.2099 	0.0675373 	0 10.2107 	0.0670777 	0 10.2137 	0.0666731 	0 10.2133 	0.0661683 	0 10.2137 	0.0656565 	0 10.214 	0.0651448 	0 10.2144 	0.0646333 	0 10.2166 	0.0641662 	0 10.2167 	0.0636324 	0 10.2168 	0.0630651 	0 10.2169 	0.062498 	0 10.217 	0.0619309 	0 10.2182 	0.0613824 	0 10.2191 	0.0608179 	0 10.2189 	0.0601813 	0 10.2188 	0.0595447 	0 10.2187 	0.0589082 	0 10.2188 	0.0582489 	0 10.2207 	0.0576394 	0 10.2204 	0.0569043 	0 10.2201 	0.0561692 	0 10.2198 	0.0554341 	0 10.2186 	0.054619 	0 10.2217 	0.0539248 	0 10.2213 	0.0530219 	0 10.2209 	0.0521156 	0 10.2204 	0.0512018 	0 10.2179 	0.0501472 	0 10.222 	0.0492683 	0 10.2217 	0.0481284 	0 10.2212 	0.0469677 	0 10.2202 	0.0457894 	0 10.2163 	0.0444583 	0 10.2214 	0.0433497 	0 10.2212 	0.0418064 	0 10.2202 	0.0402012 	0 10.2185 	0.0385668 	0 10.213 	0.0367645 	0 10.2188 	0.0353543 	0 10.2185 	0.0336902 	4.90541e-21 10.217 	0.0319756 	1.07851e-20 10.2145 	0.0302825 	1.48719e-20 10.2073 	0.0286855 	1.09539e-20 10.2135 	0.0279586 	1.24505e-19 10.2132 	0.0270285 	1.37548e-19 10.2115 	0.0260554 	1.29316e-19 10.2089 	0.0250643 	1.04352e-19 10.2008 	0.0239646 	-2.24676e-20 10.2074 	0.0237512 	-5.93351e-20 10.2067 	0.0232692 	-6.79801e-20 10.205 	0.022754 	-7.31342e-20 10.2028 	0.0222098 	-7.40857e-20 10.1942 	0.021301 	-2.20475e-20 10.2013 	0.0211154 	-1.99242e-20 10.2001 	0.0205639 	-1.34061e-20 10.1985 	0.0199957 	-6.68896e-21 10.1969 	0.019426 	4.63603e-23 10.1878 	0.0185049 	1.12964e-20 10.1954 	0.0182808 	-5.33386e-22 10.1938 	0.0175891 	-2.20785e-20 10.1922 	0.0168974 	-4.36256e-20 10.1907 	0.0162056 	-6.51747e-20 10.1815 	0.0152213 	-9.92203e-20 10.189 	0.0151099 	-1.6414e-19 10.1873 	0.0144466 	-1.49764e-19 10.1856 	0.0137832 	-1.3538e-19 10.184 	0.0131197 	-1.2099e-19 10.1747 	0.0120743 	-3.30469e-20 10.182 	0.0121549 	6.57708e-20 10.1802 	0.0115958 	8.12088e-20 10.1784 	0.0110367 	9.66388e-20 10.1766 	0.0104774 	1.12061e-19 10.1674 	0.00939127 	4.14339e-20 10.1743 	0.00958767 	-9.29288e-20 10.1724 	0.00911884 	-9.9567e-20 10.1705 	0.0086499 	-1.06195e-19 10.1686 	0.00818085 	-1.12811e-19 10.1595 	0.00710779 	-4.14049e-22 10.166 	0.00730519 	1.06364e-19 10.1639 	0.00689958 	9.53292e-20 10.1619 	0.00649388 	8.42852e-20 10.1598 	0.00608809 	7.3232e-20 10.1509 	0.00510342 	-2.67872e-20 10.1568 	0.00521781 	-1.07492e-19 10.1546 	0.004855 	-1.32186e-19 10.1523 	0.00449212 	-1.56876e-19 10.1501 	0.00412916 	-1.81562e-19 10.1414 	0.00329081 	-1.42978e-19 10.1467 	0.00327472 	-1.85178e-19 10.1442 	0.00293145 	-1.71093e-19 10.1417 	0.00258813 	-1.57004e-19 10.1392 	0.00224474 	-1.42914e-19 10.1308 	0.00156823 	-8.58481e-20 10.1352 	0.00140721 	-7.46943e-20 10.1324 	0.00105863 	-5.40158e-20 10.1297 	0.000709999 	-3.33384e-20 10.1269 	0.000361325 	-1.26619e-20 10.1189 	-0.000178654 	4.31372e-21 10.1222 	-0.000471432 	0 10.1191 	-0.000846587 	0 10.116 	-0.00122178 	0 10.1129 	-0.001597 	0 10.1053 	-0.00205223 	0 10.1074 	-0.00244958 	-1.47887e-20 10.1039 	-0.00286873 	-3.5735e-20 10.1004 	-0.0032879 	-5.66825e-20 10.0969 	-0.00370711 	-7.76312e-20 10.0898 	-0.00413992 	-1.01456e-19 10.0904 	-0.00461507 	-1.17402e-19 10.0864 	-0.00509137 	-1.18318e-19 10.0825 	-0.0055677 	-1.1923e-19 10.0786 	-0.00604406 	-1.20138e-19 10.0722 	-0.00651052 	-1.1129e-19 10.0708 	-0.00704686 	-6.56072e-20 10.0664 	-0.00758737 	-3.3798e-20 10.0619 	-0.00812793 	-1.99755e-21 10.0575 	-0.00866852 	2.97941e-20 10.0521 	-0.00920358 	5.58149e-20 10.0507 	-0.00951887 	6.0122e-20 10.048 	-0.00984146 	6.03685e-20 10.0453 	-0.0101641 	6.06129e-20 10.0427 	-0.0104867 	6.08555e-20 10.0401 	-0.0108011 	6.10899e-20 10.0377 	-0.0110846 	6.1749e-20 10.0354 	-0.0113681 	6.24077e-20 10.033 	-0.0116517 	6.30659e-20 10.0306 	-0.0119353 	6.37236e-20 10.0229 	-0.0125096 	6.48782e-20 10.0224 	-0.0129017 	5.15404e-20 10.0167 	-0.0135651 	3.82014e-20 10.0111 	-0.0142286 	2.48611e-20 10.0055 	-0.0148923 	1.15195e-20 9.98268 	-0.0164515 	-5.93466e-22 9.99263 	-0.0163499 	-1.08386e-20 9.98635 	-0.0170634 	-2.34647e-20 9.98006 	-0.0177772 	-3.60894e-20 9.97377 	-0.0184911 	-4.87128e-20 9.93821 	-0.0206495 	-6.1346e-20 9.95883 	-0.0201176 	-6.44858e-20 9.95187 	-0.0208706 	-7.27854e-20 9.94491 	-0.0216239 	-8.1081e-20 9.93794 	-0.0223774 	-8.93726e-20 9.88962 	-0.0250378 	-1.06542e-19 9.92073 	-0.0241601 	-1.47312e-19 9.91307 	-0.0249414 	-1.37224e-19 9.90541 	-0.025723 	-1.27154e-19 9.89774 	-0.0265051 	-1.171e-19 9.83705 	-0.0295499 	-4.61182e-20 9.87815 	-0.0284205 	-3.11918e-20 9.8698 	-0.0292191 	-2.21903e-20 9.86143 	-0.0300183 	-1.31876e-20 9.85305 	-0.0308179 	-4.18384e-21 9.78075 	-0.0341218 	0 9.83101 	-0.0328362 	0 9.82196 	-0.0336415 	0 9.81289 	-0.0344474 	0 9.80382 	-0.035254 	0 9.721 	-0.0386902 	0 9.77932 	-0.0373371 	2.74097e-21 9.76958 	-0.0381391 	1.10456e-20 9.75983 	-0.0389419 	1.93491e-20 9.75007 	-0.0397454 	2.76514e-20 9.65811 	-0.0431953 	4.61111e-20 9.72317 	-0.0418565 	1.62015e-19 9.71277 	-0.0426468 	1.65527e-19 9.70236 	-0.0434378 	1.6906e-19 9.69193 	-0.0442297 	1.72612e-19 9.59242 	-0.0475829 	4.63224e-20 9.66276 	-0.0463288 	2.61058e-20 9.65173 	-0.0470994 	1.88084e-20 9.64068 	-0.047871 	1.15098e-20 9.62962 	-0.0486435 	4.20995e-21 9.52429 	-0.0518033 	1.90695e-20 9.59602 	-0.0507442 	1.14302e-19 9.5867 	-0.0514407 	1.1828e-19 9.57505 	-0.052188 	1.19679e-19 9.55457 	-0.0531291 	1.10418e-19 9.45404 	-0.0558222 	4.21945e-21 9.51841 	-0.0551357 	-1.08443e-19 9.518 	-0.0556377 	-1.35763e-19 9.5058 	-0.0563569 	-1.47561e-19 9.4756 	-0.0574048 	-1.40633e-19 9.38202 	-0.0596094 	-6.76761e-20 9.43899 	-0.0592553 	-1.94348e-19 9.44606 	-0.0596457 	-2.32192e-19 9.43333 	-0.0603321 	-2.34839e-19 9.39509 	-0.0613853 	-1.89075e-19 9.30857 	-0.0631323 	-5.16956e-20 9.35823 	-0.0630695 	-2.73369e-20 9.37126 	-0.0634222 	-1.24308e-20 9.35805 	-0.0640731 	-4.28883e-21 9.31349 	-0.0650441 	0 9.23402 	-0.0663719 	0 9.2766 	-0.0665611 	0 9.29409 	-0.0669403 	0 9.28044 	-0.0675558 	0 9.23126 	-0.0683729 	2.1318e-21 9.1587 	-0.0693237 	5.66549e-21 9.19451 	-0.0697386 	2.31911e-21 9.21502 	-0.0702047 	0 9.20098 	-0.0707864 	0 9.1488 	-0.0713849 	2.60352e-21 9.08292 	-0.0719907 	6.14199e-21 9.11235 	-0.0726134 	2.79533e-21 9.13456 	-0.0732243 	1.17417e-21 9.12017 	-0.0737732 	8.30357e-21 9.0665 	-0.0740917 	2.65915e-20 9.00697 	-0.074377 	4.65383e-20 9.03048 	-0.0751936 	1.80004e-19 9.05321 	-0.0760053 	3.10911e-19 9.03822 	-0.0765182 	3.14033e-19 8.98468 	-0.0765032 	1.80608e-19 8.93113 	-0.0764889 	4.71836e-20 8.94921 	-0.0774878 	2.75561e-20 8.96725 	-0.078488 	7.92937e-21 8.95166 	-0.0789254 	4.83098e-22 8.90367 	-0.0786307 	3.78859e-21 8.85568 	-0.0783362 	7.09417e-21 8.86882 	-0.0795056 	3.97827e-21 8.88193 	-0.0806767 	8.62954e-22 8.86663 	-0.0810413 	1.12833e-21 8.82374 	-0.0804862 	-2.99877e-21 8.78085 	-0.0799309 	-7.12548e-21 8.78958 	-0.0812587 	-5.28765e-20 8.79825 	-0.0825883 	-9.86306e-20 8.78337 	-0.082879 	-1.00356e-19 8.74512 	-0.0820837 	-5.82284e-20 8.7069 	-0.0812877 	-1.60988e-20 8.71169 	-0.0827602 	8.72708e-20 8.71644 	-0.0842348 	1.90635e-19 8.70208 	-0.0844523 	2.00205e-19 8.66803 	-0.0834383 	1.14032e-19 8.63401 	-0.0824233 	2.78605e-20 8.63536 	-0.0840258 	1.56196e-20 8.63665 	-0.0856306 	3.37529e-21 8.62293 	-0.0857771 	-1.47917e-21 8.59265 	-0.0845672 	3.52446e-21 8.5624 	-0.083356 	8.53105e-21 8.56075 	-0.0850722 	2.46879e-21 8.55903 	-0.086791 	-3.59906e-21 8.54604 	-0.0868696 	-1.93758e-20 8.51911 	-0.0854881 	-7.14254e-20 8.49222 	-0.084105 	-1.23479e-19 8.48799 	-0.085918 	-2.58533e-19 8.48359 	-0.0877121 	-3.91743e-19 8.47098 	-0.0876803 	-3.69469e-19 8.44754 	-0.0862205 	-2.20783e-19 8.42363 	-0.084691 	-6.60842e-20 8.4172 	-0.0865829 	6.25554e-20 8.40979 	-0.0881658 	1.70295e-19 8.39755 	-0.0881097 	1.67979e-19 8.37806 	-0.0867833 	9.34338e-20 8.35678 	-0.0851334 	5.84307e-22 8.34849 	-0.0870868 	-9.14041e-20 8.33906 	-0.0884161 	-1.57938e-19 8.32718 	-0.0883396 	-1.67309e-19 8.31074 	-0.0871941 	-1.19491e-19 8.29178 	-0.0854473 	-3.95738e-20 8.28194 	-0.0874442 	-2.82077e-20 8.27132 	-0.088487 	-1.69358e-20 8.2598 	-0.0883937 	-5.77309e-21 8.24565 	-0.0874677 	1.03524e-20 8.22872 	-0.0856485 	3.17974e-20 8.21763 	-0.0876732 	8.99219e-21 8.20648 	-0.0884083 	-3.47879e-21 8.19531 	-0.0883034 	-9.22169e-21 8.18285 	-0.0876265 	-7.94873e-21 8.16769 	-0.0857604 	7.90636e-21 8.15559 	-0.0877997 	-9.69686e-21 8.14445 	-0.0882157 	-1.85387e-20 8.13363 	-0.0881041 	-2.45322e-20 8.12234 	-0.0876956 	-3.31747e-20 8.10874 	-0.0858047 	-5.50438e-20 8.09585 	-0.087844 	5.52712e-20 8.08513 	-0.0879374 	6.82308e-20 8.07465 	-0.0878233 	7.08091e-20 8.06415 	-0.0876935 	7.25313e-20 8.05191 	-0.0857995 	-2.16756e-20 8.0386 	-0.0877141 	6.64519e-20 8.02845 	-0.0876022 	6.91978e-20 8.0183 	-0.0874904 	7.19438e-20 8.00816 	-0.0873785 	7.46898e-20 7.99724 	-0.085765 	9.48532e-21 7.98416 	-0.0873443 	3.21498e-22 7.97434 	-0.0872395 	2.2427e-22 7.96452 	-0.0871347 	1.27041e-22 7.95469 	-0.0870298 	2.98131e-23 7.94474 	-0.0857228 	1.44166e-20 7.93221 	-0.0869725 	0 7.9227 	-0.0868803 	0 7.9132 	-0.0867882 	0 7.9037 	-0.086696 	0 7.8944 	-0.0856979 	1.12418e-20 7.88264 	-0.0866325 	0 7.87345 	-0.0865591 	0 7.86426 	-0.0864857 	0 7.85507 	-0.0864124 	0 7.84621 	-0.0857187 	0 7.83538 	-0.0863586 	0 7.82649 	-0.0863096 	0 7.81761 	-0.0862606 	0 7.80872 	-0.0862117 	0 7.80011 	-0.0858123 	-4.5362e-21 7.79033 	-0.0861814 	0 7.78174 	-0.0861619 	0 7.77314 	-0.0861423 	0 7.76455 	-0.0861228 	0 7.75605 	-0.0860038 	-2.69065e-21 7.75219 	-0.0861203 	0 7.7487 	-0.0861263 	0 7.74521 	-0.0861324 	0 7.74171 	-0.0861385 	0 7.73824 	-0.0861445 	0 7.7333 	-0.0861543 	0 7.72836 	-0.0861641 	0 7.72342 	-0.0861739 	0 7.71847 	-0.0861837 	0 7.71434 	-0.08608 	0 7.70567 	-0.0862328 	-8.91213e-21 7.69744 	-0.0862874 	-1.87515e-20 7.68919 	-0.0863422 	-2.85905e-20 7.68095 	-0.086397 	-3.84293e-20 7.67483 	-0.0861541 	-4.82785e-20 7.66572 	-0.0865082 	-4.51671e-20 7.65774 	-0.0866046 	-4.45903e-20 7.64975 	-0.0867011 	-4.40127e-20 7.64176 	-0.0867977 	-4.34343e-20 7.63716 	-0.0864258 	-4.70202e-20 7.62761 	-0.0869733 	-3.64723e-20 7.61987 	-0.0871144 	-2.59051e-20 7.61213 	-0.0872556 	-1.53373e-20 7.60438 	-0.0873969 	-4.76901e-21 7.60121 	-0.0869111 	0 7.59123 	-0.0876439 	-1.99643e-21 7.58373 	-0.0878319 	-6.78233e-21 7.57621 	-0.0880199 	-1.15679e-20 7.56868 	-0.0882082 	-1.63532e-20 7.56685 	-0.0876217 	-2.11591e-20 7.55647 	-0.088533 	-5.18885e-20 7.54917 	-0.0887697 	-7.19378e-20 7.54186 	-0.0890065 	-9.19878e-20 7.53454 	-0.0892436 	-1.12039e-19 7.53397 	-0.0885687 	-1.01601e-19 7.5232 	-0.0896528 	-7.74698e-20 7.51609 	-0.0899392 	-6.63625e-20 7.50896 	-0.0902257 	-5.52519e-20 7.50191 	-0.0905008 	-4.45411e-20 7.50244 	-0.0897585 	-6.89068e-20 7.49159 	-0.0909437 	-8.28217e-20 7.48435 	-0.0913453 	-6.63668e-20 7.47739 	-0.0916821 	-4.73956e-20 7.47166 	-0.0918528 	-2.59859e-20 7.47215 	-0.091195 	7.58972e-21 7.46156 	-0.0924058 	1.17314e-20 7.45384 	-0.0929938 	8.778e-21 7.44703 	-0.0933814 	3.54072e-21 7.44255 	-0.0934574 	0 7.44297 	-0.0928828 	0 7.43263 	-0.0941207 	0 7.42444 	-0.0948884 	0 7.41775 	-0.0953266 	0 7.41444 	-0.0953154 	0 7.41478 	-0.0948215 	0 7.40467 	-0.096086 	0 7.39602 	-0.0970262 	-7.653e-21 7.38944 	-0.0975136 	-2.59891e-20 7.38723 	-0.0974213 	-4.43771e-20 7.38748 	-0.0970057 	-6.27962e-20 7.37757 	-0.0982954 	-4.3192e-20 7.36847 	-0.0994008 	-2.2526e-20 7.36198 	-0.099936 	1.40782e-21 7.36081 	-0.0997688 	9.55446e-21 7.36095 	-0.0994299 	1.38445e-20 7.35122 	-0.100744 	4.6686e-20 7.34168 	-0.102008 	7.86174e-20 7.33526 	-0.102589 	9.82776e-20 7.33507 	-0.102353 	8.48931e-20 7.33509 	-0.102089 	7.03953e-20 7.32552 	-0.103426 	4.58605e-20 7.3159 	-0.104764 	2.13176e-20 7.31002 	-0.10536 	1.13962e-21 7.30991 	-0.105169 	1.04521e-20 7.3098 	-0.104977 	1.97643e-20 7.30038 	-0.106337 	8.44223e-20 7.29091 	-0.107697 	1.49083e-19 7.2855 	-0.10833 	1.49675e-19 7.28525 	-0.108209 	8.5522e-20 7.28501 	-0.108088 	2.13667e-20 7.27571 	-0.109469 	1.27315e-20 7.26636 	-0.110851 	4.09971e-21 7.2614 	-0.111521 	4.32655e-21 7.26101 	-0.111468 	1.34904e-20 7.26062 	-0.111415 	2.26544e-20 7.25143 	-0.112818 	8.62541e-20 7.24219 	-0.114221 	1.49857e-19 7.23763 	-0.114928 	1.50479e-19 7.23709 	-0.114942 	8.74087e-20 7.23655 	-0.114956 	2.43364e-20 7.22744 	-0.11638 	1.58721e-20 7.21829 	-0.117804 	7.41115e-21 7.21411 	-0.118548 	0 7.21342 	-0.118628 	0 7.21271 	-0.118707 	0 7.20369 	-0.120153 	0 7.19466 	-0.121592 	0 7.19093 	-0.12235 	0 7.18991 	-0.122525 	0 7.18904 	-0.122669 	0 7.18007 	-0.124137 	0 7.17207 	-0.125475 	0 7.16825 	-0.126278 	0 7.16651 	-0.126635 	1.26831e-20 7.16546 	-0.126843 	2.96306e-20 7.15653 	-0.128334 	1.12975e-20 7.14951 	-0.129577 	3.43294e-21 7.14559 	-0.130425 	1.23757e-20 7.14313 	-0.130959 	2.36792e-20 7.14189 	-0.131229 	3.69703e-20 7.13299 	-0.132743 	1.27321e-19 7.12689 	-0.133897 	1.68743e-19 7.12286 	-0.134789 	1.74316e-19 7.11969 	-0.135494 	1.41147e-19 7.11825 	-0.135826 	3.00537e-20 7.10935 	-0.137363 	1.43563e-19 7.10415 	-0.138434 	1.60085e-19 7.09999 	-0.139369 	1.48386e-19 7.09611 	-0.140241 	1.27649e-19 7.09447 	-0.140633 	3.7806e-20 7.08556 	-0.142194 	2.57051e-20 7.08119 	-0.143186 	2.57821e-20 7.0769 	-0.144164 	2.61553e-20 7.07259 	-0.145142 	2.6533e-20 7.07047 	-0.14565 	6.33168e-20 7.06237 	-0.147132 	8.17743e-20 7.05797 	-0.148153 	7.96174e-20 7.05353 	-0.149174 	7.7447e-20 7.04906 	-0.150196 	7.52629e-20 7.04617 	-0.150876 	4.40773e-20 7.03896 	-0.152271 	8.70389e-21 7.0344 	-0.153333 	2.17839e-21 7.0298 	-0.154396 	-4.33534e-21 7.02517 	-0.155458 	-1.08373e-20 7.02152 	-0.156307 	-2.1125e-21 7.01514 	-0.157615 	-3.34276e-22 7.01041 	-0.158716 	-2.46606e-22 7.00565 	-0.159817 	-1.58963e-22 7.00085 	-0.160918 	-7.13482e-23 6.99644 	-0.161929 	0 6.99208 	-0.162869 	-9.57712e-21 6.9884 	-0.163722 	-2.19239e-20 6.98471 	-0.164575 	-3.42733e-20 6.98099 	-0.165428 	-4.66255e-20 6.97745 	-0.166237 	-5.83538e-20 6.97613 	-0.166529 	-6.21982e-20 6.9748 	-0.166822 	-6.60423e-20 6.97347 	-0.167114 	-6.98861e-20 6.97214 	-0.167406 	-7.37295e-20 6.97109 	-0.167673 	-7.73303e-20 6.96572 	-0.168869 	-6.13768e-20 6.96048 	-0.170038 	-4.51874e-20 6.95522 	-0.171208 	-2.89927e-20 6.94991 	-0.172377 	-1.27927e-20 6.94594 	-0.173423 	8.76479e-22 6.93968 	-0.174755 	8.68007e-21 6.93426 	-0.175957 	2.38224e-20 6.9288 	-0.177159 	3.89593e-20 6.9233 	-0.178362 	5.40909e-20 6.92024 	-0.179345 	7.34256e-20 6.91307 	-0.180811 	5.27461e-20 6.90745 	-0.182046 	3.64856e-20 6.90179 	-0.183281 	2.02196e-20 6.89608 	-0.184517 	3.94808e-21 6.89394 	-0.185438 	-2.17677e-21 6.88584 	-0.187037 	-5.19174e-20 6.88001 	-0.188304 	-5.50007e-20 6.87414 	-0.189571 	-5.81061e-20 6.86848 	-0.190817 	-5.86188e-20 6.86701 	-0.191697 	-1.45616e-20 6.85841 	-0.193362 	-5.91241e-20 6.8519 	-0.194723 	-6.97984e-20 6.84582 	-0.19602 	-7.31921e-20 6.84111 	-0.197194 	-6.04893e-20 6.83941 	-0.198107 	-1.34104e-20 6.8306 	-0.199792 	-6.06092e-20 6.8231 	-0.201288 	-8.50321e-20 6.8168 	-0.20261 	-8.86819e-20 6.81307 	-0.203709 	-5.86611e-20 6.81112 	-0.20465 	-5.1587e-21 6.80211 	-0.206354 	-2.08344e-21 6.79359 	-0.207981 	2.81815e-22 6.78706 	-0.209327 	3.33361e-23 6.78432 	-0.210345 	0 6.78215 	-0.211313 	0 6.77292 	-0.213032 	0 6.76363 	-0.214752 	0 6.75726 	-0.216101 	0 6.75489 	-0.217092 	0 6.75249 	-0.218084 	0 6.74304 	-0.21982 	0 6.73354 	-0.221555 	0 6.72737 	-0.222932 	5.76586e-21 6.72477 	-0.223948 	1.5241e-20 6.72214 	-0.224965 	2.47119e-20 6.71248 	-0.226718 	-3.96469e-20 6.70275 	-0.228471 	-1.04015e-19 6.69679 	-0.229876 	-1.05376e-19 6.69396 	-0.230917 	-4.29644e-20 6.6911 	-0.231959 	1.94474e-20 6.68121 	-0.23373 	7.67895e-21 6.67145 	-0.235485 	-3.15049e-21 6.66582 	-0.236891 	6.60912e-21 6.66244 	-0.237995 	2.82094e-21 6.65935 	-0.239057 	-2.85561e-21 6.64922 	-0.240843 	5.60885e-20 6.6406 	-0.242498 	9.427e-20 6.63475 	-0.243916 	9.5103e-20 6.6302 	-0.245158 	6.79742e-20 6.62687 	-0.246236 	1.48283e-20 6.61651 	-0.248031 	2.04223e-20 6.60906 	-0.249576 	2.07127e-20 6.60298 	-0.251003 	1.84868e-20 6.59723 	-0.252379 	1.58518e-20 6.59368 	-0.253467 	1.08068e-20 6.58311 	-0.255265 	1.84487e-20 6.57685 	-0.256696 	9.69685e-21 6.57054 	-0.258127 	9.46556e-22 6.56419 	-0.259557 	-7.80215e-21 6.55979 	-0.260731 	-1.22949e-20 6.55047 	-0.262408 	-4.18067e-20 6.54399 	-0.263842 	-4.20903e-20 6.53747 	-0.265275 	-4.23559e-20 6.5309 	-0.266708 	-4.26034e-20 6.52525 	-0.268018 	-2.32754e-20 6.51776 	-0.269454 	-2.25559e-20 6.51162 	-0.270774 	-1.75286e-20 6.50545 	-0.272093 	-1.25037e-20 6.49923 	-0.273413 	-7.48121e-21 6.49335 	-0.274653 	-2.76169e-21 6.49267 	-0.274787 	-2.16419e-21 6.49199 	-0.274921 	-1.56666e-21 6.4913 	-0.275055 	-9.69112e-22 6.49062 	-0.275189 	-3.71533e-22 6.49004 	-0.275312 	2.12476e-22 6.48265 	-0.276768 	0 6.47527 	-0.278213 	0 6.46784 	-0.279657 	0 6.46036 	-0.281101 	0 6.45402 	-0.282419 	0 6.44576 	-0.284007 	0 6.43813 	-0.285458 	0 6.43045 	-0.286908 	0 6.42271 	-0.288359 	0 6.41727 	-0.289563 	0 6.40808 	-0.291279 	0 6.40019 	-0.29273 	0 6.39226 	-0.294181 	0 6.3849 	-0.295566 	1.15706e-21 6.37979 	-0.296709 	6.58998e-21 6.37026 	-0.298427 	2.04282e-21 6.36148 	-0.299995 	-1.27104e-21 6.3533 	-0.301439 	-3.5787e-21 6.3469 	-0.302691 	-2.55566e-21 6.34158 	-0.303826 	4.77829e-22 6.33179 	-0.305532 	-2.1465e-20 6.32201 	-0.307224 	-4.24216e-20 6.31371 	-0.308646 	-4.32596e-20 6.30822 	-0.309771 	-3.05726e-20 6.30269 	-0.310895 	-1.78849e-20 6.29264 	-0.312587 	-1.07114e-20 6.28252 	-0.314278 	-3.53954e-21 6.27457 	-0.315682 	-2.37432e-21 6.26888 	-0.316796 	-6.89079e-21 6.26315 	-0.317911 	-1.14059e-20 6.25284 	-0.319587 	-6.0072e-21 6.24246 	-0.321264 	-6.05386e-22 6.23481 	-0.322664 	-4.29223e-21 6.2289 	-0.323777 	-1.33251e-20 6.22297 	-0.324889 	-2.23836e-20 6.21239 	-0.326558 	-1.32375e-20 6.20288 	-0.328119 	-9.5953e-21 6.19526 	-0.329493 	-1.55825e-20 6.18829 	-0.330751 	-2.33035e-20 6.18213 	-0.331865 	-3.31956e-20 6.17129 	-0.333532 	-2.51656e-20 6.16294 	-0.334954 	-1.73131e-20 6.15509 	-0.336324 	-9.50287e-21 6.14719 	-0.337693 	-1.6981e-21 6.14061 	-0.338835 	-4.37606e-21 6.13041 	-0.340403 	-2.45378e-20 6.12237 	-0.34176 	-2.09198e-20 6.11428 	-0.343115 	-1.72817e-20 6.10614 	-0.344471 	-1.36235e-20 6.09841 	-0.345751 	-3.21783e-21 6.09374 	-0.34646 	1.2354e-21 6.08979 	-0.3471 	5.47721e-21 6.08583 	-0.347739 	9.72002e-21 6.08186 	-0.348378 	1.39638e-20 6.07799 	-0.349 	1.80927e-20 6.07378 	-0.349703 	2.18939e-20 6.06955 	-0.350405 	2.56939e-20 6.06531 	-0.351108 	2.94926e-20 6.06106 	-0.35181 	3.32901e-20 6.05697 	-0.352432 	4.14109e-20 6.04892 	-0.353838 	6.17513e-20 6.04072 	-0.355157 	7.34289e-20 6.03247 	-0.356476 	8.51291e-20 6.02417 	-0.357795 	9.6852e-20 6.01634 	-0.358881 	7.36581e-20 6.00827 	-0.360427 	1.31036e-19 5.99983 	-0.361723 	1.3072e-19 5.99135 	-0.363019 	1.30443e-19 5.98297 	-0.364245 	1.10994e-19 5.97511 	-0.365225 	2.28001e-20 5.96682 	-0.366768 	1.7